20333
Atoms. Timestep: 123200000
C -12.6399 17.0238 7.13083
C -14.0402 17.6076 7.05684
C -14.3165 18.7253 7.98345
C -14.7439 18.233 9.34674
C -15.4374 19.3601 10.108
C -16.2609 18.8803 11.3084
C -16.9694 20.0307 12.0365
C -17.8621 19.6052 13.2042
C -18.6843 20.6825 13.942
C -19.7043 19.9124 14.9468
C -20.8435 20.7555 15.4136
C -21.7088 20.1101 16.5305
C -23.0008 20.9065 16.7141
C -24.042 20.2065 17.6679
C -25.2754 21.0998 17.66
C -26.4115 20.4731 18.4983
N -27.6429 21.2865 18.4895
S -12.4716 15.6454 5.938
C -28.3009 21.1863 17.2028
C -27.5756 22.7485 18.9115
C -28.5029 20.6394 19.4597
Br 1.9453 -67.4326 8.07325
H -11.9019 17.8109 6.87601
H -12.2702 16.719 8.12671
H -14.1159 17.9927 6.0754
H -14.8216 16.8027 7.15655
H -13.4529 19.3946 8.03531
H -15.0929 19.3315 7.48552
H -15.4296 17.4463 9.21308
H -13.9346 17.7404 9.87688
H -14.6431 20.0783 10.3707
H -16.0849 19.9274 9.4877
H -16.9653 18.1529 10.9621
H -15.644 18.3351 11.994
H -16.1322 20.6781 12.342
H -17.4955 20.5645 11.3944
H -18.5184 18.8328 12.8451
H -17.247 19.0609 13.9424
H -18.016 21.2938 14.4566
H -19.1762 21.3924 13.2249
H -20.0983 18.987 14.4196
H -19.1556 19.4826 15.7708
H -20.4516 21.7234 15.7176
H -21.3743 21.1046 14.5307
H -22.0337 19.0903 16.0381
H -21.2376 20.1218 17.4754
H -22.8011 21.8507 17.1313
H -23.3602 21.0793 15.7536
H -24.2925 19.2196 17.3146
H -23.5323 20.1313 18.6225
H -25.0755 22.0493 18.1344
H -25.6639 21.2887 16.7121
H -26.7384 19.4857 18.1534
H -26.1496 20.4152 19.5781
H -27.8546 21.6472 16.302
H -28.4704 20.1778 16.7556
H -29.1751 21.8388 17.2605
H -28.5369 23.3415 18.8159
H -27.1993 22.8793 19.9785
H -26.9018 23.1997 18.1552
H -29.2937 21.3268 19.4889
H -28.7057 19.6165 19.1775
H -28.0378 20.6431 20.406
C -8.8516 -13.9165 22.163
C -10.2666 -13.9932 22.7191
C -10.3152 -13.9448 24.2286
C -11.7543 -13.85 24.8606
C -11.7719 -13.8433 26.3991
C -13.1462 -13.6825 26.9375
C -13.2952 -13.647 28.4538
C -14.7486 -13.7441 28.9843
C -14.8865 -13.5759 30.5022
C -16.3252 -13.6688 31.0539
C -16.4033 -13.8274 32.5639
C -17.8132 -13.5665 33.2225
C -17.6607 -13.5929 34.7141
C -18.9555 -13.7581 35.5318
C -18.6554 -13.6473 37.0867
C -20.0341 -13.8034 37.845
N -19.9301 -13.9458 39.3949
S -8.87549 -13.2334 20.4857
C -21.3059 -13.8712 39.9747
C -19.1593 -12.9059 40.0897
C -19.4252 -15.2976 39.7184
Br -40.8216 200.969 -156.133
H -8.19103 -13.2318 22.8165
H -8.43472 -14.9307 22.1304
H -10.8678 -13.1266 22.3492
H -10.8164 -14.8595 22.2998
H -9.7931 -14.8576 24.5466
H -9.70829 -13.1444 24.6008
H -12.1796 -12.8966 24.5432
H -12.3635 -14.6329 24.5439
H -11.3091 -14.7897 26.7355
H -11.1434 -13.02 26.6481
H -13.6691 -12.8452 26.4222
H -13.7605 -14.5566 26.6713
H -12.6417 -14.5429 28.7668
H -12.9294 -12.7003 28.856
H -15.3481 -12.8936 28.5105
H -15.1574 -14.6847 28.6675
H -14.2692 -14.4404 30.8055
H -14.2938 -12.7302 30.8103
H -16.7019 -12.6795 30.8052
H -16.9179 -14.4588 30.5775
H -15.9679 -14.7785 32.9389
H -15.7416 -12.9904 32.8508
H -18.3417 -12.6701 32.8201
H -18.3609 -14.4555 33.0463
H -16.9789 -14.4536 35.0514
H -17.1684 -12.6646 35.0542
H -19.5973 -12.963 35.2231
H -19.5082 -14.6423 35.222
H -17.8191 -14.3164 37.4423
H -18.1566 -12.7163 37.3172
H -20.7037 -12.9407 37.6169
H -20.5193 -14.7485 37.486
H -21.4343 -14.0645 41.0332
H -21.7505 -12.8687 39.7421
H -21.938 -14.6227 39.4979
H -18.1852 -12.8966 39.6917
H -19.5557 -11.9617 39.8475
H -19.0119 -13.0746 41.2354
H -18.8516 -15.362 40.6541
H -20.2954 -15.9634 39.8026
H -18.7311 -15.702 38.9336
C 1.2345 15.7986 -11.2195
C 2.14862 16.2526 -12.3459
C 2.47824 17.7715 -12.2729
C 3.43322 18.1711 -13.3979
C 4.14139 19.5182 -13.1133
C 5.0319 19.9137 -14.3806
C 5.87666 21.1075 -14.0474
C 6.87258 21.5502 -15.2241
C 7.83646 22.6428 -14.6738
C 8.91619 23.0379 -15.6199
C 9.64804 24.3169 -15.0453
C 9.05834 25.6154 -15.5995
C 9.96005 26.7662 -15.2643
C 9.27867 28.1311 -15.565
C 10.2177 29.3645 -15.4824
C 10.1746 29.8449 -13.9968
N 11.3355 30.5917 -13.4504
S 0.793326 13.9883 -11.407
C 12.548 29.7086 -13.5527
C 11.5739 31.88 -14.1519
C 11.1327 30.8123 -11.989
Br 380.975 -166.395 -46.4446
H 1.71431 15.9871 -10.2741
H 0.371426 16.4466 -11.3977
H 1.73949 16.0916 -13.3469
H 3.10203 15.7323 -12.2019
H 2.83863 18.0239 -11.2503
H 1.56667 18.3712 -12.2907
H 2.88377 18.3075 -14.297
H 4.08313 17.3369 -13.48
H 4.83134 19.3984 -12.2869
H 3.2785 20.1934 -12.9069
H 4.3944 20.0359 -15.3127
H 5.74762 19.1528 -14.6998
H 6.38186 20.8424 -13.1538
H 5.2999 21.9315 -13.6053
H 6.29274 22.0262 -16.0416
H 7.40648 20.8101 -15.7402
H 8.34363 22.315 -13.7271
H 7.22646 23.4291 -14.3885
H 8.42944 23.1767 -16.6208
H 9.60945 22.2869 -15.7935
H 10.6979 24.2037 -15.3934
H 9.66845 24.255 -13.9927
H 8.07012 25.7993 -15.3146
H 9.05027 25.4391 -16.643
H 10.9361 26.6055 -15.8383
H 10.2111 26.793 -14.205
H 8.406 28.1466 -14.8709
H 8.86851 28.2217 -16.5832
H 9.9761 30.2061 -16.2443
H 11.1667 28.9668 -15.728
H 9.99961 28.9219 -13.3892
H 9.21693 30.314 -13.8289
H 12.928 29.6172 -14.6109
H 12.4688 28.7293 -13.2312
H 13.4336 30.1691 -13.0931
H 12.56 32.392 -13.916
H 10.7836 32.584 -13.9125
H 11.5541 31.7127 -15.2297
H 10.2603 31.3738 -11.8406
H 11.8092 31.4873 -11.3925
H 11.0617 29.8418 -11.4931
C -22.853 -10.9485 -14.1408
C -24.087 -10.4089 -14.7495
C -24.7342 -11.4328 -15.7387
C -26.1888 -11.0391 -16.0983
C -27.2808 -11.4273 -15.0778
C -28.6808 -10.9016 -15.4692
C -29.6784 -11.0788 -14.3471
C -30.9659 -10.325 -14.7155
C -32.1226 -10.5539 -13.7428
C -33.3573 -9.92235 -14.2937
C -34.6192 -10.0835 -13.3249
C -35.7543 -9.1493 -13.6432
C -37.099 -9.29329 -12.8308
C -36.9705 -9.13315 -11.3035
C -38.3312 -9.25623 -10.572
C -38.307 -8.8725 -9.07623
N -39.5533 -9.16523 -8.29049
S -21.8255 -9.62878 -13.3842
C -39.4425 -8.51426 -6.9419
C -40.8206 -8.75543 -9.02556
C -39.6097 -10.6032 -8.03325
Br 21.0982 252.145 -369.935
H -22.2022 -11.6009 -14.782
H -23.1161 -11.5838 -13.2974
H -23.9019 -9.53655 -15.3728
H -24.8292 -10.1617 -13.9861
H -24.6294 -12.4657 -15.4068
H -24.2422 -11.2576 -16.7819
H -26.5473 -11.4636 -17.0269
H -26.189 -9.98918 -16.3161
H -27.0328 -10.9784 -14.0454
H -27.1938 -12.4605 -14.8973
H -28.9148 -11.3173 -16.4582
H -28.6147 -9.84024 -15.7042
H -29.3711 -10.6879 -13.3701
H -29.7993 -12.141 -14.2709
H -31.318 -10.5441 -15.7092
H -30.9074 -9.21087 -14.7639
H -31.8211 -10.2576 -12.7542
H -32.3431 -11.6214 -13.5158
H -33.589 -10.2232 -15.2783
H -33.1879 -8.90543 -14.3659
H -34.2753 -9.8039 -12.3118
H -34.9847 -11.1162 -13.2305
H -35.9753 -9.36162 -14.7127
H -35.3114 -8.10913 -13.6272
H -37.6472 -10.2625 -13.0127
H -37.8433 -8.59037 -13.2091
H -36.4569 -8.15946 -11.1517
H -36.2781 -9.85474 -10.9484
H -38.5789 -10.2832 -10.7452
H -39.1805 -8.65349 -11.0037
H -38.0225 -7.83545 -9.08324
H -37.4958 -9.2814 -8.46824
H -39.5768 -7.36396 -6.92014
H -38.4722 -8.68995 -6.43737
H -40.2651 -8.9328 -6.31757
H -40.9206 -7.79476 -9.41833
H -41.7005 -8.8046 -8.36457
H -40.9672 -9.42193 -9.88357
H -39.9212 -11.0804 -8.95171
H -40.3297 -10.9256 -7.2622
H -38.7212 -11.0722 -7.71492
C 8.90338 -18.3644 -12.9221
C 10.2352 -19.0787 -12.8037
C 10.2699 -20.3289 -13.7199
C 10.5953 -21.6484 -12.9332
C 10.8071 -22.9129 -13.7759
C 11.143 -24.1817 -13.0696
C 11.3259 -25.3713 -14.0711
C 11.9373 -26.6387 -13.5149
C 12.013 -27.9144 -14.4902
C 12.625 -29.18 -13.8229
C 12.7742 -30.3888 -14.693
C 12.8122 -31.6552 -13.8293
C 12.9844 -32.9365 -14.6124
C 13.2277 -34.2027 -13.8132
C 13.1385 -35.4161 -14.7662
C 13.6562 -36.7283 -14.1406
N 13.3233 -37.9539 -14.9691
S 8.75686 -16.9317 -11.8288
C 14.0497 -38.0113 -16.3258
C 13.6041 -39.2349 -14.1882
C 11.8341 -38.1132 -15.1513
Br 19.344 7.47722 -3.43994
H 8.16055 -19.0876 -12.5437
H 8.65158 -18.17 -13.9649
H 10.4624 -19.2497 -11.7842
H 11.0178 -18.4264 -13.2217
H 10.9665 -20.2013 -14.5253
H 9.40446 -20.4329 -14.2903
H 9.89428 -21.7388 -12.1868
H 11.4663 -21.383 -12.4134
H 11.5274 -22.7794 -14.5707
H 9.87831 -23.1203 -14.3329
H 10.3469 -24.4847 -12.3985
H 11.983 -24.0831 -12.4162
H 11.8703 -25.1139 -14.9446
H 10.3582 -25.7271 -14.4973
H 11.4765 -26.8391 -12.565
H 13.0224 -26.4187 -13.2033
H 12.6022 -27.5395 -15.3329
H 10.9554 -28.1305 -14.8786
H 11.9976 -29.4542 -12.9936
H 13.6325 -28.943 -13.4786
H 13.7591 -30.4261 -15.3157
H 12.0123 -30.3744 -15.4334
H 12.1329 -31.6869 -12.9581
H 13.6953 -31.4683 -13.1769
H 13.7536 -32.8862 -15.438
H 11.9932 -32.9942 -15.1354
H 12.4818 -34.2919 -13.0155
H 14.2286 -33.9951 -13.4578
H 13.717 -35.1849 -15.6124
H 12.0769 -35.4864 -15.0254
H 13.1815 -37.0513 -13.1882
H 14.7799 -36.7481 -14.0095
H 13.8077 -37.1462 -16.9278
H 13.8084 -38.9177 -16.9342
H 15.0647 -38.0967 -16.0425
H 14.6611 -39.2969 -13.9311
H 13.333 -40.1433 -14.7138
H 13.0657 -39.3322 -13.2514
H 11.37 -37.4296 -15.9443
H 11.4137 -38.0077 -14.2088
H 11.6292 -39.1432 -15.4439
C 6.86672 11.3445 -12.4748
C 7.5836 11.4821 -13.8512
C 8.15574 12.9206 -13.982
C 8.66842 13.3819 -15.3509
C 9.27475 14.8151 -15.4071
C 9.78289 15.1708 -16.802
C 10.2766 16.7228 -16.8389
C 11.4003 16.887 -17.9209
C 12.1803 18.2069 -17.7264
C 13.2015 18.5573 -18.8954
C 13.9572 19.8505 -18.6178
C 14.8592 20.114 -19.8162
C 15.6575 21.4297 -19.6362
C 16.8012 21.5513 -20.7035
C 17.7453 22.8226 -20.4605
C 18.9587 22.7693 -21.4114
N 19.9561 23.8686 -21.3853
S 6.08731 9.76063 -12.359
C 19.3485 25.1725 -21.918
C 20.5381 24.2049 -20.069
C 21.0668 23.5296 -22.3308
Br -71.384 -336.729 320.143
H 6.2653 12.2746 -12.3283
H 7.63963 11.3968 -11.7294
H 6.89336 11.2943 -14.7086
H 8.47681 10.8779 -13.8684
H 8.87097 13.0918 -13.1795
H 7.35852 13.6683 -13.8267
H 7.87593 13.3009 -16.119
H 9.45383 12.665 -15.6654
H 9.99869 14.9805 -14.6902
H 8.44622 15.5335 -15.337
H 8.95673 14.9702 -17.5169
H 10.5177 14.4651 -17.069
H 10.6054 17.0967 -15.8791
H 9.35612 17.2046 -17.166
H 10.9003 16.7896 -18.9452
H 12.1313 16.0185 -17.9735
H 12.5734 18.3807 -16.6973
H 11.4524 19.0241 -17.7753
H 12.6094 18.5857 -19.8601
H 13.8607 17.6706 -19.0748
H 14.5321 19.9 -17.7235
H 13.2019 20.6385 -18.6236
H 14.279 20.0664 -20.7156
H 15.5794 19.307 -19.7784
H 16.0555 21.5097 -18.6563
H 15.0085 22.281 -19.7567
H 16.3394 21.6528 -21.7212
H 17.5281 20.7057 -20.7454
H 17.9651 23.0114 -19.4088
H 17.1204 23.6931 -20.6713
H 18.6304 22.6503 -22.4664
H 19.4618 21.8748 -21.0809
H 19.1129 25.1125 -22.9637
H 20.0534 26.0274 -21.82
H 18.5215 25.5217 -21.3812
H 19.8781 24.9254 -19.5031
H 21.4549 24.7167 -20.1842
H 20.7361 23.3219 -19.4982
H 20.728 23.4501 -23.3498
H 21.454 22.5194 -22.0517
H 21.8315 24.4101 -22.2426
C -13.8287 -26.8263 -3.12888
C -13.2693 -27.5198 -4.32054
C -13.1152 -29.0622 -4.21926
C -12.8909 -29.8684 -5.57405
C -12.918 -31.3779 -5.39919
C -12.4211 -32.0234 -6.72968
C -12.469 -33.5313 -6.80979
C -11.761 -34.2846 -8.02165
C -12.0272 -35.8224 -8.05656
C -11.1842 -36.624 -9.08
C -11.6888 -38.0176 -9.12021
C -11.0463 -38.8458 -10.3366
C -11.745 -40.2511 -10.4753
C -11.7086 -40.9835 -11.8837
C -12.1942 -42.3958 -11.8517
C -13.7038 -42.4689 -11.4304
N -14.4185 -43.8072 -11.6001
S -13.5889 -25.0174 -3.32436
C -15.7492 -43.7501 -10.9278
C -14.6906 -44.0715 -13.078
C -13.7047 -45.079 -11.1174
Br 459.058 -27.2853 399.128
H -13.3143 -27.128 -2.27477
H -14.7986 -27.0739 -2.80951
H -12.281 -27.1166 -4.60334
H -13.9875 -27.3055 -5.13443
H -14.0858 -29.3738 -3.86642
H -12.3836 -29.4233 -3.61175
H -12.0099 -29.4524 -6.0136
H -13.7051 -29.6368 -6.20839
H -13.9156 -31.6743 -5.06271
H -12.2215 -31.5867 -4.57136
H -11.3583 -31.7497 -6.85277
H -12.8493 -31.4919 -7.59301
H -13.4907 -33.9206 -6.75399
H -12.0711 -33.9644 -5.88293
H -10.7164 -34.1425 -7.84362
H -11.9445 -33.7919 -8.94248
H -13.0664 -35.9187 -8.37131
H -11.8864 -36.1995 -7.05112
H -10.0962 -36.6897 -8.78797
H -11.3429 -36.2434 -10.0707
H -12.8038 -38.0876 -9.31198
H -11.5661 -38.6537 -8.26675
H -9.96224 -38.9957 -10.2877
H -11.1791 -38.343 -11.3324
H -12.7476 -40.0808 -10.2177
H -11.4155 -40.8676 -9.67517
H -10.7015 -40.9532 -12.2065
H -12.1044 -40.3633 -12.6997
H -11.6189 -42.8431 -11.0937
H -12.0751 -43.0049 -12.8031
H -14.3668 -41.7561 -11.9611
H -13.6609 -42.2773 -10.4333
H -16.3135 -44.7156 -11.0583
H -16.4102 -43.0172 -11.4105
H -15.7006 -43.6273 -9.84655
H -13.757 -43.9311 -13.6072
H -15.2271 -43.2143 -13.5342
H -15.3179 -44.9445 -13.279
H -13.5065 -44.9811 -10.0389
H -12.7728 -45.2173 -11.6358
H -14.4295 -45.9084 -11.1136
C 15.0945 -3.80705 13.9138
C 16.1331 -2.62368 13.9243
C 17.3547 -3.00533 14.835
C 18.3232 -1.738 14.8915
C 19.5292 -2.02328 15.7533
C 20.6008 -0.981464 15.6766
C 21.8278 -1.35335 16.5582
C 22.8775 -0.20456 16.4083
C 24.2333 -0.645832 17.0567
C 25.1843 0.552852 17.2476
C 26.2891 0.214309 18.2224
C 27.4613 1.24095 18.387
C 28.7703 0.756028 19.1418
C 29.841 1.85216 19.1058
C 31.1241 1.36997 19.778
C 32.2674 2.38171 19.8726
N 33.6257 1.78746 20.2424
S 13.778 -3.58792 12.6273
C 33.508 1.21438 21.6208
C 34.6943 2.83105 20.3552
C 33.9567 0.713938 19.2859
Br 9.74876 -47.9749 -2.88432
H 15.4674 -4.84898 13.8508
H 14.516 -3.88034 14.8482
H 16.4172 -2.45456 12.9169
H 15.6153 -1.74662 14.314
H 16.9824 -3.11571 15.8714
H 17.8534 -3.85373 14.4505
H 18.5335 -1.46367 13.8122
H 17.7949 -0.837381 15.3212
H 19.2211 -2.16371 16.8058
H 19.977 -2.97274 15.4483
H 20.8774 -0.91838 14.6924
H 20.2932 0.00672291 15.8773
H 21.4742 -1.39596 17.6184
H 22.1997 -2.3464 16.4172
H 23.0499 0.134499 15.3755
H 22.6218 0.582907 17.0023
H 24.1064 -1.09313 18.0765
H 24.7535 -1.25506 16.3702
H 25.5732 0.729529 16.3076
H 24.6404 1.42816 17.5545
H 25.8921 0.0500826 19.1749
H 26.7208 -0.757658 17.9621
H 27.7628 1.63294 17.4516
H 27.1332 2.0711 18.9855
H 28.4358 0.468568 20.1465
H 29.1345 -0.175401 18.5927
H 30.0396 2.07123 18.0361
H 29.4652 2.71304 19.6344
H 30.8456 1.07092 20.7907
H 31.2851 0.466585 19.2223
H 32.4583 2.9165 18.9482
H 31.9124 3.31567 20.4784
H 34.5517 0.851371 22.0006
H 33.2811 1.95155 22.399
H 32.9697 0.275163 21.6871
H 34.3772 3.68232 20.9009
H 35.5427 2.3679 20.8962
H 35.0498 3.2776 19.4538
H 33.3801 -0.112471 19.41
H 34.0523 1.06435 18.1779
H 34.9335 0.267688 19.4401
C -21.943 11.0559 8.16191
C -23.3141 10.5436 7.79072
C -24.6232 11.3227 8.31284
C -25.9179 10.8344 7.54497
C -26.9263 10.2201 8.50666
C -28.2815 9.87306 7.78746
C -29.3068 9.01905 8.66452
C -30.6338 8.91423 8.03056
C -31.5252 7.91048 8.79519
C -32.9481 8.04393 8.44787
C -33.8896 7.17429 9.34004
C -35.2464 6.66396 8.68877
C -36.106 5.72047 9.58136
C -37.4816 5.21779 8.95422
C -38.2593 4.3208 9.94453
C -39.6343 3.8714 9.33464
N -40.6944 3.48839 10.2966
S -20.6764 10.1182 7.34161
C -40.195 2.79596 11.5106
C -41.6326 2.59654 9.56814
C -41.3802 4.76647 10.6522
Br -4.56673 -6.73185 41.442
H -21.7766 12.0439 7.71044
H -21.7834 10.9921 9.24117
H -23.4612 10.4577 6.73129
H -23.3088 9.53302 8.17877
H -24.732 11.0281 9.3425
H -24.5184 12.3729 8.20706
H -26.526 11.5892 7.14913
H -25.6101 10.1442 6.78196
H -26.3654 9.40908 9.03994
H -27.0884 10.941 9.26826
H -28.8132 10.7623 7.51994
H -28.0365 9.35147 6.83282
H -28.8595 8.0372 8.88265
H -29.505 9.41906 9.64924
H -31.0887 9.90184 8.02929
H -30.5904 8.56139 7.01226
H -31.2398 6.90394 8.54921
H -31.4227 8.03511 9.86516
H -33.3217 9.09645 8.54912
H -33.1246 7.88718 7.3948
H -33.3757 6.27793 9.50578
H -34.0484 7.69227 10.2386
H -35.7991 7.62783 8.43854
H -35.161 6.23768 7.7289
H -35.454 4.88501 9.87917
H -36.3211 6.25334 10.4883
H -38.0807 6.10763 8.68793
H -37.2998 4.64128 8.02609
H -37.6323 3.44634 10.2216
H -38.4757 4.94132 10.8431
H -39.9855 4.54757 8.63465
H -39.3137 3.03443 8.77996
H -39.6993 1.83731 11.2975
H -39.4821 3.39426 12.1302
H -41.0554 2.54903 12.1812
H -41.0142 1.87313 8.98645
H -42.2785 2.05125 10.2286
H -42.2971 3.11848 8.88502
H -40.5813 5.45129 10.9754
H -41.9563 5.15519 9.75271
H -42.1227 4.60369 11.4278
C -7.98743 -23.4254 -14.3089
C -6.88247 -24.3996 -14.7331
C -7.26679 -25.4046 -15.8319
C -6.09976 -26.3432 -16.2967
C -6.45709 -27.2613 -17.5357
C -5.35325 -28.2536 -17.9988
C -5.75424 -29.1574 -19.1211
C -4.78483 -30.2403 -19.4645
C -3.49122 -29.7315 -20.1266
C -2.49648 -30.8865 -20.5674
C -2.97786 -31.5571 -21.7573
C -2.00016 -32.5481 -22.4111
C -2.39108 -32.9976 -23.8503
C -1.22687 -33.6735 -24.5905
C -1.54508 -33.6644 -26.0761
C -0.358508 -34.0259 -26.9233
N -0.663819 -34.3735 -28.3615
S -7.30807 -22.3193 -13.1092
C -1.56098 -35.5541 -28.4352
C -1.18746 -33.2101 -29.0007
C 0.652286 -34.6764 -28.9844
Br 176.674 73.0126 333.524
H -8.78787 -23.961 -13.8314
H -8.52383 -22.961 -15.1767
H -6.61661 -24.9557 -13.7836
H -5.85896 -23.929 -14.8761
H -7.7319 -24.8735 -16.6278
H -8.05937 -25.9976 -15.3353
H -5.92568 -26.9179 -15.3865
H -5.18492 -25.812 -16.5057
H -6.82298 -26.6173 -18.3296
H -7.31396 -27.8533 -17.2469
H -4.90437 -28.8242 -17.1716
H -4.6447 -27.5351 -18.4202
H -5.99788 -28.4587 -19.9434
H -6.70973 -29.6792 -18.8192
H -5.20972 -31.057 -20.0626
H -4.62561 -30.6827 -18.5119
H -3.03026 -29.0087 -19.4719
H -3.71847 -29.1013 -20.9602
H -2.27278 -31.5836 -19.7924
H -1.53733 -30.4018 -20.7787
H -3.12867 -30.7919 -22.5212
H -4.0181 -31.9885 -21.618
H -1.8368 -33.37 -21.7443
H -1.11034 -31.9584 -22.5065
H -2.71515 -32.1953 -24.4952
H -3.20066 -33.705 -23.83
H -1.17632 -34.6909 -24.3526
H -0.289009 -33.1941 -24.4227
H -1.92428 -32.6482 -26.4016
H -2.33208 -34.4727 -26.1516
H 0.0312352 -35.0356 -26.5148
H 0.411624 -33.2641 -26.9084
H -2.58923 -35.2887 -28.1429
H -1.1823 -36.4105 -27.7763
H -1.60499 -35.9749 -29.4592
H -0.657002 -32.2859 -28.7289
H -2.17095 -33.0603 -28.5656
H -1.24308 -33.1965 -30.0413
H 1.13095 -35.5845 -28.5707
H 1.41989 -33.9175 -29.2549
H 0.448904 -34.933 -30.0367
C 16.4397 -0.24118 8.82099
C 16.5573 0.937531 9.80922
C 17.9761 1.04837 10.373
C 18.1934 2.04814 11.5749
C 19.5849 1.77505 12.0974
C 20.0753 2.5157 13.366
C 21.5047 2.32682 13.674
C 21.9001 3.21438 14.8619
C 23.4268 3.282 14.9708
C 23.9227 4.40353 15.9292
C 25.4546 4.39219 16.1678
C 25.8913 5.1854 17.3643
C 27.4284 5.28618 17.4653
C 27.9091 5.97149 18.6849
C 29.5062 6.17006 18.7011
C 30.0661 6.78638 20.0115
N 31.5281 7.1768 19.9738
S 14.7516 -0.589943 8.12885
C 32.3447 6.3255 19.1355
C 32.0333 7.1699 21.4092
C 31.7239 8.55089 19.3797
Br 3.51949 31.7602 -8.80199
H 17.2745 -0.182442 8.09747
H 16.6968 -1.08686 9.49132
H 16.4413 1.8686 9.25005
H 15.7484 0.915555 10.5965
H 18.1891 0.0382454 10.6859
H 18.752 1.21539 9.62696
H 17.9692 3.05983 11.2805
H 17.4735 1.73846 12.2665
H 19.5797 0.67662 12.3228
H 20.3211 1.78914 11.2791
H 19.8813 3.54118 13.1458
H 19.4379 2.21402 14.2455
H 21.775 1.31894 13.8182
H 22.0722 2.6179 12.8093
H 21.5454 4.1952 14.7323
H 21.4009 2.76584 15.6826
H 23.9625 2.30772 15.0984
H 23.833 3.5145 13.9957
H 23.7289 5.36511 15.5581
H 23.3751 4.36855 16.8216
H 25.8192 3.39774 16.2977
H 25.9397 4.76397 15.3405
H 25.4105 6.13527 17.45
H 25.5319 4.83527 18.3279
H 27.835 4.24014 17.3586
H 27.9727 5.7824 16.6606
H 27.3446 6.90296 18.8231
H 27.6831 5.37191 19.5129
H 29.9338 5.18192 18.5628
H 29.8493 6.76206 17.8481
H 29.3926 7.58791 20.3931
H 29.8874 6.00728 20.7631
H 32.1653 6.49937 18.0468
H 33.3694 6.56885 19.2727
H 32.1894 5.29418 19.401
H 31.9402 6.21354 21.8783
H 33.0519 7.41434 21.5436
H 31.4617 7.87781 21.8827
H 32.7425 8.92757 19.2095
H 31.2887 8.62571 18.3948
H 31.2741 9.27129 20.0276
C -17.6806 -15.7496 -16.2853
C -18.9392 -16.6564 -16.5345
C -20.2617 -15.965 -15.9861
C -21.634 -16.4924 -16.4579
C -22.8174 -15.587 -15.98
C -24.16 -16.1202 -16.604
C -25.3355 -15.0572 -16.4597
C -26.7106 -15.7323 -16.7378
C -27.907 -14.7709 -16.3398
C -29.3156 -15.2679 -16.7155
C -30.4745 -14.4416 -16.0477
C -31.9155 -14.9102 -16.3773
C -32.9439 -14.0166 -15.6533
C -34.4277 -14.446 -16.0211
C -35.4765 -13.6204 -15.4101
C -36.6049 -14.5212 -14.8721
N -37.6821 -13.8589 -14.0902
S -17.2408 -15.4485 -14.578
C -37.325 -13.4798 -12.6689
C -38.2113 -12.648 -14.7689
C -38.7293 -14.876 -14.0074
Br -41.3476 -3.16414 9.16063
H -17.6719 -14.7213 -16.7371
H -16.8099 -16.1408 -16.7909
H -18.8607 -17.615 -15.9535
H -19.2216 -16.8831 -17.5725
H -20.2557 -14.9948 -16.4296
H -20.1677 -15.8785 -14.8481
H -21.7413 -17.5484 -16.2156
H -21.5297 -16.4075 -17.5674
H -22.5788 -14.5952 -16.3066
H -22.8724 -15.411 -14.9441
H -24.3523 -17.0799 -16.0915
H -24.0443 -16.4794 -17.6213
H -25.1145 -14.1493 -16.9956
H -25.3613 -14.7169 -15.4323
H -26.8028 -16.6539 -16.1572
H -26.6894 -16.1462 -17.7167
H -27.8191 -13.7256 -16.6778
H -28.0149 -14.7555 -15.2738
H -29.3668 -16.3695 -16.4533
H -29.5465 -15.2734 -17.8292
H -30.2801 -13.4102 -16.2834
H -30.364 -14.6165 -14.9921
H -32.0237 -15.8719 -16.1078
H -32.1181 -14.9123 -17.4692
H -32.8497 -12.9286 -15.7703
H -32.9435 -14.1652 -14.5709
H -34.5344 -15.4681 -15.7172
H -34.5754 -14.3751 -17.1303
H -35.8205 -12.8722 -16.1575
H -34.9775 -13.0267 -14.5865
H -36.186 -15.3462 -14.2469
H -37.0403 -15.0434 -15.7597
H -36.399 -12.8556 -12.6071
H -38.2016 -12.9448 -12.165
H -37.2296 -14.4643 -12.1213
H -38.9523 -12.1957 -14.1732
H -38.7444 -12.7505 -15.6832
H -37.484 -11.8165 -14.8236
H -39.19 -15.0118 -14.9653
H -39.426 -14.5097 -13.2039
H -38.3674 -15.7688 -13.5019
C 10.3711 -16.3654 11.3154
C 11.486 -17.4197 11.0363
C 11.285 -18.5636 12.0429
C 12.1703 -19.6748 11.6512
C 12.1304 -20.8657 12.5872
C 12.2715 -22.2248 11.8551
C 12.0812 -23.5063 12.6901
C 12.2087 -24.6757 11.6787
C 12.2051 -26.0269 12.4529
C 12.2174 -27.2234 11.381
C 11.9237 -28.6009 12.0493
C 11.72 -29.8045 11.169
C 11.1107 -31.018 11.8985
C 11.487 -32.3245 11.2476
C 10.8156 -33.5553 11.8797
C 11.4512 -34.8581 11.3104
N 10.9636 -36.1434 11.8273
S 10.0107 -15.383 9.74939
C 12.0032 -37.118 11.3631
C 9.63456 -36.4437 11.2746
C 10.8804 -36.3353 13.2928
Br 41.9141 0.20074 33.8049
H 9.38258 -16.8249 11.6639
H 10.7414 -15.6108 11.9156
H 11.4793 -17.836 10.0546
H 12.5365 -16.9949 11.2
H 11.6304 -18.2346 12.9989
H 10.2591 -18.9669 12.1439
H 12.0263 -19.9228 10.5993
H 13.1835 -19.3311 11.7841
H 13.0229 -20.7779 13.195
H 11.2151 -20.836 13.2046
H 11.594 -22.2257 10.9753
H 13.3253 -22.2158 11.4285
H 12.6186 -23.5447 13.5956
H 11.0214 -23.5355 13.0331
H 11.4042 -24.7428 10.969
H 13.1925 -24.6611 11.1248
H 13.054 -25.9611 13.0649
H 11.3471 -26.0975 13.1169
H 11.4673 -27.1169 10.5739
H 13.1902 -27.2956 10.8526
H 12.7353 -28.8483 12.7672
H 10.9918 -28.4736 12.6892
H 11.1756 -29.5964 10.2216
H 12.7302 -29.9243 10.7735
H 11.5271 -31.0205 12.9727
H 10.0045 -30.8455 11.9227
H 11.4952 -32.3897 10.1591
H 12.5935 -32.4379 11.2413
H 10.9768 -33.5366 12.9172
H 9.82097 -33.5441 11.5558
H 11.4156 -34.85 10.1589
H 12.4981 -34.7419 11.6205
H 11.7758 -38.1547 11.5768
H 12.2423 -37.0903 10.2674
H 12.9167 -36.9554 11.8989
H 9.53249 -36.5072 10.2016
H 9.4081 -37.4074 11.7513
H 8.8084 -35.7954 11.569
H 10.6264 -37.3431 13.5089
H 11.8448 -36.1098 13.7535
H 10.2343 -35.6155 13.7729
C -19.3956 14.2613 -5.21178
C -20.8761 14.3346 -5.59162
C -21.3603 15.7058 -6.07458
C -22.8405 15.7421 -6.46893
C -23.1796 14.9503 -7.74601
C -24.4615 15.4998 -8.42211
C -24.86 14.8766 -9.76121
C -26.1854 15.574 -10.3243
C -26.5842 14.849 -11.6569
C -27.9323 15.4938 -12.1585
C -28.1907 14.9629 -13.6287
C -29.5711 15.4951 -14.098
C -29.808 15.5061 -15.6247
C -31.2557 15.6902 -16.0943
C -31.3544 16.1188 -17.6036
C -32.7512 16.5406 -18.0572
N -32.8894 17.0565 -19.4602
S -19.0415 12.6087 -4.60001
C -32.2289 16.1147 -20.5367
C -34.3489 17.2181 -19.7498
C -32.2834 18.454 -19.5141
Br -34.0847 -4.04298 33.35
H -19.1307 14.9323 -4.42868
H -18.7913 14.5399 -6.11798
H -21.5129 14.0668 -4.73663
H -21.0801 13.5631 -6.30916
H -20.6634 15.8871 -6.85949
H -21.1413 16.3823 -5.28067
H -22.8963 16.8436 -6.80636
H -23.6184 15.6187 -5.72057
H -23.2911 13.9215 -7.39402
H -22.3854 15.0255 -8.50364
H -24.3518 16.5516 -8.66992
H -25.2651 15.5519 -7.73635
H -24.9902 13.7934 -9.56078
H -24.0377 15.0662 -10.4472
H -25.9747 16.6745 -10.4666
H -26.9845 15.5143 -9.65384
H -26.8003 13.8378 -11.3882
H -25.8207 14.9069 -12.3988
H -27.8441 16.5706 -12.0851
H -28.71 15.1661 -11.4735
H -28.1224 13.8975 -13.7672
H -27.4289 15.4104 -14.3036
H -29.804 16.5147 -13.7804
H -30.3523 15.0013 -13.6084
H -29.5208 14.5695 -16.0337
H -29.1573 16.1353 -16.1963
H -31.6602 16.4759 -15.483
H -31.8893 14.8844 -15.8928
H -30.8779 15.4449 -18.2579
H -30.8126 17.0564 -17.716
H -33.1191 17.1959 -17.3044
H -33.4801 15.7359 -17.9588
H -32.5353 15.0621 -20.4607
H -31.1127 16.1218 -20.4309
H -32.483 16.4055 -21.5647
H -34.5942 17.54 -20.7952
H -34.8035 17.9623 -19.1099
H -34.9122 16.2777 -19.6015
H -32.3993 18.8984 -20.5333
H -31.2652 18.5558 -19.1245
H -32.7752 19.2153 -18.8578
C -4.07435 -25.3731 -10.8732
C -4.96492 -26.4303 -11.3904
C -5.8626 -27.2267 -10.4564
C -6.58827 -28.3405 -11.17
C -5.67293 -29.3623 -11.8557
C -6.25482 -30.7718 -11.9858
C -5.60176 -31.6141 -13.063
C -6.09037 -33.0479 -13.0127
C -5.51677 -33.7848 -14.2476
C -5.96807 -35.2767 -14.234
C -5.1312 -36.1334 -15.2766
C -5.93725 -37.389 -15.6986
C -5.32475 -38.1892 -16.872
C -6.22153 -39.3965 -17.2494
C -5.65804 -40.0988 -18.5301
C -6.46065 -41.3577 -18.9843
N -6.01601 -42.1039 -20.2228
S -4.86302 -24.1913 -9.72801
C -6.2615 -41.3067 -21.411
C -4.50581 -42.4577 -20.0408
C -6.94261 -43.2656 -20.3297
Br 345.42 299.338 376.877
H -3.64205 -24.7297 -11.6596
H -3.2683 -25.8361 -10.3858
H -4.27979 -27.1144 -11.9423
H -5.57253 -26.0369 -12.1951
H -6.47758 -26.5031 -9.91749
H -5.19643 -27.6039 -9.67318
H -7.23548 -27.8508 -11.8145
H -7.22041 -28.9085 -10.5443
H -4.85756 -29.5291 -11.2208
H -5.21142 -28.9952 -12.7528
H -7.33046 -30.71 -12.2021
H -6.11258 -31.1563 -10.9816
H -4.57527 -31.6521 -12.9522
H -5.7948 -31.1786 -14.0774
H -7.20133 -33.1569 -13.0339
H -5.85264 -33.5309 -12.065
H -4.43274 -33.7907 -14.2605
H -5.87525 -33.3036 -15.1279
H -7.0164 -35.3445 -14.5407
H -6.01219 -35.7378 -13.2324
H -4.15619 -36.3121 -14.995
H -5.0307 -35.6147 -16.2261
H -6.96915 -37.0889 -15.8767
H -6.00073 -37.982 -14.7614
H -4.35168 -38.607 -16.5533
H -5.35507 -37.5902 -17.777
H -7.26477 -39.035 -17.3946
H -6.17164 -40.197 -16.4857
H -4.67712 -40.529 -18.283
H -5.49047 -39.4275 -19.4007
H -7.48 -41.0288 -19.1801
H -6.4718 -42.0057 -18.197
H -6.14183 -41.8754 -22.3687
H -5.52001 -40.5415 -21.4664
H -7.26452 -40.9532 -21.5689
H -3.88649 -41.5658 -19.9072
H -4.14964 -42.9568 -20.9229
H -4.32241 -43.2024 -19.197
H -6.37145 -43.9344 -20.9945
H -7.93011 -43.0991 -20.8016
H -7.0863 -43.8948 -19.4454
C 12.1826 -2.22541 16.0607
C 13.3299 -1.25675 16.5301
C 14.1001 -1.82843 17.7243
C 15.3912 -0.990447 17.9555
C 16.3703 -1.5251 18.9674
C 17.6431 -0.791265 19.2141
C 18.482 -1.559 20.2638
C 19.8164 -0.816407 20.4918
C 20.8281 -1.62216 21.307
C 22.2098 -1.02396 21.339
C 23.0943 -1.95109 22.176
C 24.5759 -1.50269 22.2117
C 25.49 -2.37669 23.1388
C 26.8838 -1.73848 23.3341
C 27.6572 -2.43486 24.4748
C 29.0256 -1.69063 24.718
N 29.968 -2.51022 25.5416
S 10.9861 -1.24309 15.0246
C 29.3341 -2.82528 26.8856
C 31.1674 -1.66104 25.8705
C 30.4057 -3.86789 24.9533
Br 38.4506 -2.62068 19.7956
H 12.4567 -3.09821 15.4992
H 11.5322 -2.66692 16.8684
H 13.9681 -1.07478 15.6963
H 13.0118 -0.226888 16.8156
H 13.4198 -1.78442 18.5766
H 14.271 -2.89435 17.531
H 15.9223 -0.955234 17.0853
H 15.0287 0.024727 18.0639
H 15.8569 -1.70191 19.8892
H 16.7835 -2.53839 18.7164
H 18.3777 -0.7401 18.3886
H 17.5059 0.174303 19.641
H 17.9882 -1.63916 21.2415
H 18.6711 -2.53367 19.8499
H 20.2863 -0.740395 19.5041
H 19.6166 0.149345 20.9958
H 20.519 -1.60687 22.3646
H 20.803 -2.63216 20.9557
H 22.5959 -0.807874 20.3994
H 22.0918 -0.0481198 21.817
H 22.6422 -2.00856 23.1688
H 23.09 -2.9922 21.8504
H 24.9003 -1.49219 21.196
H 24.6912 -0.466197 22.5598
H 24.951 -2.5355 24.1198
H 25.486 -3.33861 22.6692
H 27.3327 -1.608 22.3228
H 26.727 -0.714385 23.6772
H 27.0222 -2.39679 25.4451
H 27.8255 -3.51098 24.2548
H 29.5814 -1.42325 23.7904
H 28.9216 -0.7355 25.0648
H 28.5562 -3.64151 26.7634
H 30.0676 -3.27351 27.5733
H 28.8345 -2.0761 27.4886
H 30.7138 -0.759959 26.2677
H 31.8178 -2.12901 26.5545
H 31.7061 -1.29609 24.8958
H 31.0313 -4.51266 25.6132
H 29.4693 -4.44848 24.6768
H 30.8774 -3.74402 23.988
C -23.8105 1.78416 -13.7632
C -24.8926 2.52052 -13.0314
C -26.2051 2.21959 -13.7516
C -27.4374 2.6798 -12.9761
C -28.8361 2.19119 -13.4604
C -29.9461 2.82248 -12.7249
C -31.2849 2.71475 -13.4305
C -32.2884 3.60533 -12.7079
C -33.7206 3.52196 -13.3065
C -34.8132 4.1214 -12.414
C -36.2356 3.88344 -12.947
C -37.2909 4.48707 -12.058
C -38.8112 4.20784 -12.4624
C -39.6892 5.06905 -11.5463
C -41.2303 4.98424 -11.9121
C -42.2298 5.68942 -10.9348
N -43.7074 5.52766 -11.2555
S -22.1763 2.3575 -12.9761
C -44.1553 6.35937 -12.3989
C -44.1405 4.10775 -11.4862
C -44.4187 5.9877 -10.0629
Br -69.7505 27.6021 72.0018
H -23.98 0.643189 -13.7488
H -23.7382 2.05779 -14.7966
H -24.6291 3.59647 -12.9153
H -24.9514 2.06127 -12.068
H -26.2242 1.16948 -14.0634
H -26.1001 2.7798 -14.7281
H -27.4247 3.73334 -12.9763
H -27.3777 2.38109 -11.9085
H -28.8721 1.11184 -13.3855
H -28.8276 2.52969 -14.4928
H -29.7242 3.85568 -12.4557
H -30.0477 2.33993 -11.7206
H -31.5433 1.66818 -13.2972
H -31.3134 2.90653 -14.4584
H -31.8773 4.66499 -12.6933
H -32.3623 3.36365 -11.6266
H -34.0597 2.48704 -13.4421
H -33.8237 3.98988 -14.2697
H -34.6278 5.2063 -12.2125
H -34.7226 3.73904 -11.4314
H -36.4428 2.83491 -12.9297
H -36.3075 4.19396 -13.9487
H -37.1665 5.54249 -12.0413
H -37.2569 4.03477 -11.0827
H -39.1433 3.15309 -12.3646
H -39.1039 4.47864 -13.4443
H -39.4363 6.18224 -11.5895
H -39.5089 4.75556 -10.5461
H -41.5633 3.95171 -12.0875
H -41.2728 5.41335 -12.8538
H -42.012 6.6701 -11.1005
H -41.9495 5.43422 -9.92834
H -43.6856 7.36156 -12.2256
H -45.2606 6.47849 -12.5981
H -43.636 5.95068 -13.2909
H -43.6547 3.49248 -10.6519
H -43.789 3.74979 -12.425
H -45.2158 3.92752 -11.5072
H -43.8128 5.54621 -9.22169
H -45.4989 5.7564 -10.006
H -44.4275 7.05242 -9.94348
C -1.01574 -25.7387 -8.79557
C -0.160973 -26.8423 -8.21166
C 0.376646 -27.6721 -9.30887
C 1.52574 -28.6617 -9.00739
C 1.21288 -29.7868 -7.93943
C 2.45476 -30.7486 -7.75722
C 2.80805 -31.5669 -8.9906
C 3.91235 -32.5827 -8.66759
C 4.23856 -33.482 -9.86046
C 5.05465 -34.756 -9.43359
C 5.52554 -35.6872 -10.5508
C 6.25993 -36.9856 -10.0862
C 6.70893 -37.8674 -11.2651
C 7.71769 -38.9738 -10.7371
C 8.12362 -39.8135 -11.9662
C 9.24832 -40.8077 -11.6412
N 9.4917 -41.8597 -12.725
S -1.6162 -24.3822 -7.75417
C 9.4981 -41.4188 -14.1045
C 10.7979 -42.6023 -12.3651