9113
Atoms. Timestep: 10100000
O 71.7055 38.8071 42.0759
C 72.8196 38.5716 42.5235
C 73.8526 39.7336 42.5322
C 74.3294 40.8839 43.4624
C 74.0755 42.2809 42.8105
C 73.6807 43.725 42.7879
O 74.5796 44.5077 43.0964
O 73.2813 37.4984 42.9454
O 72.4824 44.077 42.6594
O 75.3913 40.7545 42.536
C 73.8857 40.7866 44.9783
O 73.0966 39.8859 45.3404
O 74.6351 41.4617 45.7359
H 75.0902 40.9233 41.7147
O 60.3359 29.1701 72.2578
C 61.1834 30.0206 72.0029
C 62.3934 29.5485 71.124
C 63.791 29.4112 70.5754
C 63.637 28.412 69.4226
C 63.0333 28.3603 68.0186
O 61.86 28.7786 67.9556
O 61.3068 31.145 72.5371
O 63.8771 28.0382 67.1209
O 64.232 28.2668 71.341
C 64.3759 30.7083 70.1769
O 64.8788 31.3053 71.134
O 64.0917 31.1864 69.0546
H 65.1441 28.3738 71.5115
O 76.2037 48.087 59.8759
C 76.1206 48.2616 61.1841
C 76.3968 47.0133 62.0132
C 76.7119 45.431 62.0841
C 76.1427 44.7002 63.3199
C 75.0964 43.8348 64.0132
O 75.1752 42.603 63.9031
O 75.9082 49.3177 61.8053
O 74.0481 44.4518 64.3822
O 77.9534 46.0708 62.4225
C 76.6389 44.6385 60.7722
O 77.2014 45.0857 59.7742
O 75.9761 43.5565 60.7315
H 78.5514 45.8199 61.7453
O 74.1222 53.1829 63.6115
C 73.8967 53.0234 64.8332
C 74.0312 54.2956 65.6225
C 73.5365 55.5055 66.4046
C 73.0189 56.598 65.4181
C 72.6171 57.7306 64.456
O 73.4554 58.1595 63.6568
O 73.4206 51.9656 65.4044
O 71.4391 58.1572 64.5336
O 74.8282 55.833 67.0079
C 72.5257 55.2845 67.5383
O 72.0127 54.1174 67.6131
O 72.449 56.1296 68.4062
H 75.5211 55.5109 66.4486
O 65.709 50.7148 35.7195
C 66.768 51.392 35.503
C 68.0101 50.7125 35.9342
C 69.0069 49.8563 36.7098
C 69.3647 50.4725 38.0614
C 69.6799 51.4252 39.255
O 70.4675 51.0242 40.1006
O 66.8116 52.6289 35.4482
O 68.9972 52.4844 39.274
O 70.0449 49.8204 35.7223
C 68.7072 48.3309 36.8384
O 67.5059 47.9624 36.8412
O 69.5794 47.4898 37.007
H 70.7216 49.3361 36.2084
O 54.5162 25.5843 43.5618
C 55.5659 24.921 43.3812
C 55.6265 23.5295 43.9836
C 55.1275 22.7929 45.2407
C 56.0876 22.7793 46.4068
C 56.7569 23.0352 47.7399
O 56.8302 22.0545 48.5271
O 56.5414 25.3421 42.7492
O 57.0948 24.2383 47.9174
O 55.2235 21.6325 44.4551
C 53.6857 23.0352 45.736
O 53.2602 24.1317 45.5045
O 53.1684 22.0712 46.3251
H 55.957 21.7611 43.826
O 55.6663 60.8933 74.4429
C 56.8722 60.7502 74.1511
C 57.4918 61.877 73.3536
C 57.6373 63.3615 73.0036
C 58.9873 63.8582 72.4806
C 59.9772 63.2103 71.4813
O 60.4278 63.8988 70.5604
O 57.5776 59.7738 74.496
O 60.3403 62.0451 71.6858
O 58.4072 64.0899 73.9734
C 56.5061 63.9023 72.0889
O 56.5898 64.0081 70.8415
O 55.4166 64.0525 72.6767
H 57.9033 64.8227 74.3515
O 42.6285 23.1169 52.8218
C 42.1264 23.9968 52.0888
C 41.6367 23.706 50.647
C 42.1092 23.6652 49.2155
C 41.5032 24.7536 48.432
C 41.2442 26.108 47.7381
O 42.0955 26.7312 47.1257
O 41.8366 25.0937 52.5702
O 40.1506 26.5958 48.0031
O 41.0012 23.0889 48.4806
C 43.616 23.4936 49.0817
O 44.3289 24.3948 48.6763
O 44.0893 22.4053 49.3971
H 40.9573 23.555 47.6936
O 73.2774 47.0077 41.4868
C 73.1733 48.199 41.7335
C 74.3493 48.9129 42.3649
C 75.0431 49.294 43.7274
C 75.4051 50.7008 43.9218
C 75.1384 52.2164 44.0772
O 75.7529 52.9091 43.2564
O 72.0722 48.8477 41.6556
O 74.4418 52.695 45.0103
O 75.941 48.5582 42.8898
C 74.3293 48.6441 44.8827
O 73.2931 49.0976 45.3829
O 74.9203 47.599 45.2632
H 75.5837 47.709 42.7069
O 68.1306 61.0384 42.9303
C 68.1336 60.7927 41.7052
C 67.2273 61.6565 40.8694
C 66.0404 61.4709 39.9707
C 66.1091 60.2866 39.03
C 65.4651 58.8643 39.0404
O 65.6516 58.1389 40.0586
O 68.7466 59.8895 41.1076
O 64.5913 58.491 38.1862
O 66.6264 62.3972 39.0286
C 64.7177 61.2449 40.7458
O 63.694 61.7722 40.3453
O 64.7607 60.6146 41.822
H 66.0244 62.8733 38.5078
O 53.4071 30.6104 74.3853
C 52.3776 30.8405 75.0344
C 51.1732 29.939 74.9022
C 49.8565 29.5335 74.3135
C 48.8193 30.6221 74.624
C 47.6746 31.5557 74.3717
O 46.6711 31.1661 73.6377
O 52.1781 31.9184 75.6189
O 47.9542 32.7433 74.6758
O 49.3701 28.8066 75.4064
C 49.8436 28.9228 72.9096
O 49.555 29.7503 72.0346
O 50.0088 27.7021 72.7779
H 49.7396 29.2469 76.174
O 57.6028 32.3199 36.5309
C 58.1614 32.8078 35.5406
C 59.5564 32.2759 35.3187
C 60.9671 31.8956 35.8654
C 62.094 32.8885 35.3721
C 62.9183 34.0594 35.8661
O 62.4775 35.1849 35.6463
O 57.8113 33.8816 34.9832
O 64.0322 33.71 36.3063
O 60.674 32.1484 34.555
C 61.0372 31.446 37.3644
O 61.5405 32.1869 38.2587
O 60.6876 30.2997 37.7041
H 60.2772 32.9876 34.4799
O 37.5206 65.7615 58.5809
C 38.3522 66.716 58.7249
C 38.3739 67.8902 57.8048
C 38.9888 68.202 56.4613
C 40.5234 68.2411 56.5062
C 41.8469 67.7091 55.9682
O 41.926 67.5267 54.7396
O 39.0426 66.8051 59.7821
O 42.7721 67.8789 56.7819
O 39.1683 69.5925 56.5619
C 38.3734 67.3877 55.2836
O 38.1609 68.1205 54.3224
O 37.7733 66.2892 55.5702
H 38.9499 69.9283 55.7085
O 62.3251 24.9829 53.1484
C 61.8902 23.912 52.712
C 62.0515 22.7377 53.6611
C 62.3454 21.8547 54.8577
C 62.8713 22.658 56.0103
C 63.7074 23.9196 56.0643
O 64.9389 23.8117 55.7621
O 61.0756 23.6956 51.7955
O 62.9835 24.9313 56.2865
O 61.1801 22.0736 55.6059
C 63.1817 20.6051 54.466
O 62.5749 19.6823 53.9827
O 64.4645 20.7073 54.4912
H 60.6293 22.5158 54.9961
O 28.295 33.8891 56.5574
C 29.0297 34.5609 55.8377
C 28.4624 35.5421 54.7535
C 28.5977 36.4133 53.5301
C 28.2145 37.8446 53.7971
C 28.7665 39.2521 53.8092
O 28.0519 40.1664 53.2477
O 30.257 34.4849 55.8404
O 29.9047 39.4469 54.2535
O 27.4346 35.6564 53.7509
C 29.7831 36.1703 52.645
O 29.6661 35.069 52.0288
O 30.7177 36.9756 52.5315
H 27.2066 35.1239 53.0742
O 48.5358 70.0847 57.1192
C 48.3395 70.2769 55.8643
C 49.2196 71.2878 55.1554
C 50.4877 71.1291 54.3454
C 51.8531 71.1897 55.0186
C 52.2904 70.0906 56.0238
O 51.4053 69.4707 56.6376
O 47.5321 69.632 55.1041
O 53.5219 69.7587 56.0466
O 50.1755 72.461 54.6307
C 50.3566 70.2156 53.1271
O 50.1344 68.9941 53.3869
O 50.6393 70.7036 51.9714
H 50.9737 72.8536 54.979
O 53.9829 49.8193 32.0728
C 53.649 50.4162 31.0371
C 54.3764 51.7492 30.7864
C 55.7745 52.3052 30.528
C 55.8227 53.8493 30.561
C 55.3829 55.2265 31.0205
O 56.3394 56.0099 31.3498
O 52.7899 50.1212 30.2085
O 54.2705 55.2755 31.5624
O 55.969 52.7227 29.1768
C 56.6587 51.7173 31.6525
O 57.3263 50.7254 31.4647
O 56.3929 52.1822 32.7946
H 56.0772 52.0356 28.5632
O 62.3102 69.972 52.2774
C 63.3907 69.5024 52.6591
C 64.4022 69.276 51.5382
C 65.3866 68.1982 50.843
C 64.8519 68.0292 49.4035
C 63.6048 67.5098 48.7211
O 63.5344 66.2696 48.5555
O 63.7302 69.4484 53.8518
O 62.6649 68.3135 48.427
O 66.3235 69.2664 50.7128
C 65.6181 66.8617 51.5491
O 66.8178 66.555 51.6384
O 64.5783 66.1525 51.7807
H 66.4704 69.5461 51.626
O 62.4491 39.4057 77.1259
C 61.5352 39.7836 77.8465
C 61.5472 41.1428 78.4436
C 61.9311 42.5747 78.804
C 60.6322 43.3608 78.9543
C 59.7981 44.5109 78.3633
O 58.7526 44.2458 77.6652
O 60.4623 39.208 77.893
O 60.0736 45.6499 78.7641
O 62.241 41.8595 79.999
C 62.7264 43.136 77.6028
O 63.9803 43.2456 77.7612
O 62.1247 43.7262 76.6342
H 62.1313 40.9062 79.8428
O 73.3754 56.6047 49.3284
C 73.1221 56.9942 48.1615
C 73.2292 58.5042 47.9074
C 72.3374 59.6877 48.3236
C 71.3128 60.0968 47.2099
C 70.1747 59.9347 46.1518
O 70.3834 59.1365 45.241
O 72.8486 56.3701 47.0614
O 69.3709 60.8834 46.1259
O 73.4278 60.1739 47.6712
C 71.8026 59.8444 49.7235
O 71.1545 60.9154 49.94
O 72.0911 59.0659 50.6762
H 73.3787 59.8668 46.7579
O 48.0558 53.3328 79.5274
C 47.6417 52.5109 78.6773
C 46.2714 52.736 78.0205
C 44.7982 52.5948 77.866
C 44.2687 53.9301 77.3616
C 43.4943 54.5313 76.1274
O 42.5202 53.9927 75.6144
O 48.0093 51.3154 78.6077
O 44.0093 55.5862 75.7048
O 44.67 53.5688 78.8177
C 44.2699 51.2892 77.2989
O 43.7962 51.2607 76.1297
O 44.2298 50.3332 78.0649
H 45.3391 54.1724 78.5109
O 69.2645 29.3665 62.8344
C 69.46 29.563 61.6064
C 70.9054 29.7085 61.1246
C 72.0093 30.6286 60.9159
C 72.1086 30.6952 59.3982
C 72.0224 30.9786 57.9304
O 72.515 32.0859 57.4818
O 68.5747 29.6899 60.7267
O 71.5435 30.0337 57.2385
O 72.6403 29.7467 61.7456
C 71.8077 32.0844 61.4874
O 70.7028 32.4925 61.8685
O 72.8322 32.7471 61.7555
H 73.1996 30.2462 62.3073
O 75.4718 52.2639 56.4734
C 76.23 52.8918 57.2829
C 76.5285 54.3606 56.9504
C 76.3118 55.8841 57.1307
C 76.2178 56.6946 55.8404
C 75.8124 56.6432 54.3635
O 76.3673 55.7857 53.6549
O 76.4622 52.6414 58.4486
O 75.1532 57.5132 53.8715
O 77.5797 55.9251 56.6497
C 75.3546 56.3752 58.2641
O 75.4551 57.6283 58.5807
O 74.6082 55.5606 58.792
H 77.8277 56.8285 56.56
O 49.1098 70.3733 61.0784
C 48.1018 71.0214 60.8027
C 46.8168 70.8567 61.6217
C 46.0071 69.9931 62.715
C 44.8294 69.2982 61.9101
C 43.8784 68.4245 61.114
O 43.911 68.5155 59.8602
O 48.0096 71.6724 59.7258
O 43.2163 67.6171 61.8197
O 45.1403 71.0732 62.7144
C 46.8146 69.1288 63.6458
O 46.8042 69.4624 64.8271
O 47.4483 68.1568 63.1312
H 44.7902 71.2316 61.8218
O 49.8184 24.005 61.8416
C 49.055 23.1056 61.4556
C 48.552 22.0675 62.4823
C 47.7409 22.3632 63.7915
C 48.4359 23.2034 64.9154
C 49.6926 23.6739 65.5477
O 50.4927 24.4763 65.0005
O 48.6859 22.9081 60.2595
O 49.8177 23.384 66.7302
O 48.5328 21.1839 63.7935
C 46.3235 22.9348 63.4245
O 45.3832 22.351 64.0304
O 46.2427 24.0376 62.8679
H 48.5717 20.9355 64.6949
O 44.3708 23.2359 57.263
C 44.5694 22.9984 58.4572
C 43.3404 22.7465 59.3452
C 41.8725 22.9086 59.7428
C 41.5597 24.2652 60.4024
C 40.9786 25.6584 60.6966
O 40.3084 26.2295 59.833
O 45.7012 22.8692 59.0491
O 41.4862 26.2581 61.6552
O 42.481 22.1433 60.7867
C 40.9341 22.7411 58.4792
O 39.9694 21.9373 58.6371
O 41.1103 23.5639 57.5782
H 43.397 22.04 60.5474
O 32.971 58.3126 43.6493
C 33.8474 57.4632 43.3735
C 34.333 57.5417 41.9303
C 35.2448 57.6727 40.8073
C 36.3448 58.6257 41.2028
C 37.591 59.3304 41.6307
O 38.6525 58.7898 41.2795
O 34.5351 56.845 44.1985
O 37.4021 60.3884 42.2607
O 34.692 58.9343 40.7515
C 35.638 56.3516 40.2466
O 34.7195 55.6666 39.7557
O 36.796 56.1088 40.0015
H 34.886 59.2763 39.9062
O 35.5608 30.3581 53.4507
C 35.309 29.2928 52.8377
C 34.9219 28.0643 53.6175
C 35.7497 26.999 54.3838
C 35.2742 26.9463 55.8061
C 34.7653 27.3862 57.1852
O 33.7981 28.1873 57.1942
O 35.3323 29.1583 51.6013
O 35.5108 27.0534 58.1446
O 34.4159 26.4116 54.0873
C 37.2472 27.1751 54.2754
O 37.8387 27.9816 54.997
O 37.6712 26.4474 53.3247
H 34.0089 26.3838 54.9378
O 28.8372 44.6182 60.0068
C 28.8269 43.6861 59.1808
C 27.6828 43.697 58.2457
C 27.3342 43.8731 56.7808
C 27.4587 45.2846 56.248
C 27.9125 46.2852 55.2746
O 27.5013 46.2496 54.0789
O 29.6779 42.7742 59.1595
O 28.8257 46.9332 55.7845
O 26.2284 43.8336 57.727
C 27.5985 42.7618 55.7935
O 26.6852 42.5873 54.9291
O 28.7387 42.1668 55.9028
H 26.6611 44.0954 58.5446
O 56.661 22.0457 52.922
C 57.579 21.7868 53.7364
C 57.2043 21.5534 55.1581
C 56.5172 21.6577 56.5504
C 57.6436 21.9514 57.6475
C 57.8878 22.7881 58.9565
O 56.8715 22.9818 59.6747
O 58.7832 21.6068 53.3897
O 59.0777 23.1213 59.1437
O 56.77 20.2466 56.4412
C 55.1241 22.3678 56.5268
O 54.8945 23.2479 57.3815
O 54.3495 22.0837 55.6062
H 57.0806 20.0814 55.57
O 60.2846 66.2727 67.9362
C 59.149 66.8276 68.0074
C 59.1393 68.1833 67.2223
C 58.2639 69.2252 66.4831
C 58.3365 69.1365 64.9663
C 57.6171 68.4479 63.7377
O 58.3768 67.7506 62.9653
O 58.1189 66.3989 68.5663
O 56.3965 68.4778 63.6527
O 58.9938 70.4528 66.3297
C 56.9008 69.5606 67.1355
O 56.0365 68.6265 67.0621
O 56.6755 70.7513 67.3767
H 59.3357 70.5565 65.5248
O 49.951 22.5552 51.8946
C 49.2218 21.7577 51.3069
C 48.5028 20.7722 52.18
C 47.8087 20.7827 53.5322
C 48.7452 21.151 54.6933
C 49.3382 22.4717 55.1829
O 50.5309 22.7501 54.8145
O 49.0963 21.5194 50.1185
O 48.7372 23.1386 56.0737
O 47.9521 19.4975 53.9058
C 46.5856 21.7189 53.4672
O 45.5413 21.3098 53.995
O 46.7203 22.8796 53.0007
H 47.0692 19.1045 53.866
O 73.9258 39.981 64.9563
C 73.8063 39.8229 66.1832
C 73.7778 41.0731 67.0622
C 73.5567 41.3297 68.5442
C 72.8152 42.6816 68.7568
C 71.8642 43.8076 69.1768
O 71.2839 43.4941 70.2252
O 73.7717 38.7151 66.7672
O 71.7852 44.8392 68.4509
O 74.3571 42.3032 67.847
C 72.7501 40.2035 69.1975
O 73.2129 39.4801 70.0497
O 71.5466 40.2052 68.9327
H 74.7767 42.6933 68.5768
O 31.2283 56.8032 61.2433
C 30.6166 56.4449 60.1698
C 29.4958 55.4874 60.4196
C 29.0438 54.0161 60.5815
C 28.4544 53.3206 59.3876
C 28.9414 52.733 58.0367
O 28.2534 52.8126 57.0113
O 30.9019 56.7873 58.9784
O 29.8257 51.8836 58.1516
O 27.6649 53.6811 60.3478
C 29.9062 53.2499 61.615
O 30.6841 52.3339 61.2471
O 29.7705 53.5798 62.8275
H 27.1381 54.3365 60.8414
O 40.0657 62.1207 68.1444
C 40.6938 62.8659 68.9109
C 41.4098 64.0523 68.2651
C 41.0969 65.0603 67.1355
C 42.002 66.292 67.039
C 43.2223 66.7194 66.2401
O 43.3387 66.4912 65.0573
O 40.7654 62.8448 70.1551
O 44.1846 67.1968 66.8616
O 40.6035 66.2502 67.6915
C 40.6407 64.4648 65.8021
O 39.3837 64.4761 65.4879
O 41.5055 63.9535 65.0112
H 40.1411 66.7313 67.0012
O 38.9232 31.4436 71.1142
C 39.2748 31.6248 69.9527
C 38.1886 31.308 68.8487
C 36.8342 30.919 68.2952
C 35.7457 31.9735 68.61
C 35.2914 33.3683 68.1438
O 34.9672 33.5107 66.9189
O 40.3756 32.0239 69.5498
O 35.4175 34.315 68.9655
O 35.7268 30.3737 68.9276
C 36.9127 30.4554 66.7996
O 37.1842 29.2351 66.5588
O 36.4702 31.1651 65.8643
H 34.9335 30.4548 68.4029
O 47.2253 25.628 42.4112
C 48.159 24.8846 42.6443
C 47.9225 23.6784 43.5532
C 47.6545 22.7821 44.8141
C 48.7559 22.5635 45.7942
C 49.1877 23.6511 46.6946
O 48.3817 24.0361 47.5216
O 49.2635 25.0268 42.0631
O 50.2986 24.1743 46.4651
O 48.1895 21.8857 44.0009
C 46.1964 22.7146 45.2611
O 45.647 23.6998 45.7628
O 45.607 21.6463 45.002
H 47.6282 21.8175 43.1974
O 54.6648 59.0859 77.0656
C 54.5153 58.2557 77.9847
C 53.1401 57.8743 78.5908
C 51.7793 57.2398 78.7155
C 50.5597 58.1455 78.2011
C 49.9099 58.651 76.9124
O 50.1416 59.852 76.6215
O 55.4203 57.4952 78.4423
O 49.1367 57.9661 76.1889
O 52.1798 57.6646 80.0244
C 51.7431 55.847 78.0698
O 51.3481 55.7099 76.8608
O 51.9049 54.863 78.7858
H 51.8959 57.0758 80.7428
O 68.003 29.5231 44.467
C 67.3087 28.4938 44.7754
C 66.3478 27.9284 43.7496
C 65.1884 27.921 42.7739
C 64.1714 26.9331 43.3289
C 63.0106 27.0943 44.33
O 61.9674 26.4075 44.1991
O 67.3698 28.0173 45.925
O 63.2517 27.9392 45.2216
O 66.1599 27.3839 41.838
C 64.5704 29.2789 42.3937
O 64.8166 30.3313 43.0227
O 63.7827 29.3027 41.4123
H 65.6873 26.9904 41.1546
O 31.5286 55.2757 50.3345
C 30.5697 55.1658 49.5417
C 29.232 54.7598 50.1944
C 28.6164 53.4555 50.7
C 28.6705 52.3404 49.5773
C 29.3329 51.6271 48.3477
O 29.7485 52.3646 47.4618
O 30.5744 55.5233 48.3404
O 29.6823 50.4683 48.4013
O 27.4688 53.2278 50.0052
C 29.2881 53.0522 52.0802
O 28.7974 52.0911 52.7122
O 30.3971 53.5383 52.435
H 27.5682 52.3759 49.5471
O 69.4664 50.8335 73.3826
C 70.2105 49.8781 73.1836
C 71.5979 50.1901 72.7758
C 72.2772 50.69 71.4946
C 72.5154 49.4093 70.7442
C 72.1501 48.6494 69.4632
O 71.589 47.5726 69.6643
O 69.8033 48.7157 73.171
O 72.2505 49.2997 68.4103
O 73.5582 50.638 71.9894
C 71.5202 51.8773 70.8948
O 71.6103 52.9747 71.4928
O 70.9675 51.6863 69.7905
H 74.1387 50.3409 71.2696
O 52.1381 29.0772 37.2112
C 52.348 28.0341 37.8077
C 53.7147 27.381 37.6408
C 55.0676 27.1905 38.5073
C 56.2725 28.0005 38.0776
C 57.2535 29.0658 38.4639
O 58.4485 28.7747 38.7514
O 51.5122 27.4711 38.5056
O 56.7084 30.1401 38.6813
O 55.3424 26.4919 37.2999
C 54.9092 27.0214 40.0214
O 55.2109 27.9101 40.8667
O 54.5321 25.8894 40.3011
H 56.2168 26.2478 37.2537
O 63.8008 63.5177 43.316
C 63.1077 64.2719 42.5112
C 62.736 65.623 43.0303
C 62.0373 66.8791 43.608
C 60.6173 66.9064 42.9769
C 59.1149 66.7702 43.1932
O 58.6129 65.7232 42.7488
O 62.4972 63.9288 41.4736
O 58.5313 67.7366 43.7305
O 62.4702 67.6898 42.6245
C 62.1717 67.0864 45.1931
O 61.6361 68.1167 45.6357
O 62.7136 66.2141 45.8726
H 63.4132 67.7299 42.7404
O 37.3717 43.9516 35.5142
C 38.5213 44.3898 35.3123
C 38.5836 45.4318 34.1598
C 39.2808 46.5919 33.4273
C 39.1517 47.9504 34.212
C 39.1729 49.3888 34.7926
O 38.9483 49.6051 35.9953
O 39.6227 43.9069 35.7673
O 39.4854 50.1997 33.9119
O 37.9037 46.9868 33.4868
C 40.6659 46.2573 32.8963
O 40.7151 45.4099 31.9934
O 41.6552 46.8267 33.4243
H 37.7392 47.4637 32.688
O 62.5623 52.5215 75.676
C 63.0664 51.8601 76.5392
C 64.5404 51.9178 76.8316
C 65.9756 51.3687 76.3138
C 65.9354 49.8539 76.2557
C 66.2892 48.5282 75.6301
O 67.4735 48.1741 75.5894
O 62.4345 51.1013 77.3304
O 65.326 47.9257 75.1951
O 66.1849 51.7673 77.6919
C 66.7056 52.1461 75.1961
O 65.9005 52.5729 74.3822
O 67.9662 52.2614 75.2303
H 66.5324 50.9548 78.0949
O 58.6625 23.2161 64.2759
C 57.4078 23.3058 64.2953
C 56.7582 23.223 65.6272
C 55.6071 23.5376 66.6332
C 56.0012 24.7638 67.461
C 55.9878 26.1472 68.109
O 54.8377 26.4657 68.4643
O 56.6889 23.6214 63.2811
O 57.0107 26.8644 68.1781
O 56.1797 22.8971 67.7659
C 54.1668 23.52 66.0026
O 53.9674 24.0154 64.9107
O 53.2606 23.1321 66.7118
H 56.9345 23.3461 68.0929
O 56.7455 71.0037 58.7715
C 57.7095 70.7494 57.9778
C 57.9184 71.6688 56.7488
C 57.9848 71.5001 55.2664
C 59.3894 71.0522 54.903
C 60.3262 69.8304 55.008
O 60.3283 68.9405 54.1151
O 58.4297 69.7189 58.1031
O 61.1071 69.7715 56.0074
O 57.908 72.7999 54.7573
C 56.8322 70.5778 54.6758
O 56.7157 69.4084 55.1485
O 56.0531 71.1604 53.853
H 57.2629 73.3434 55.1686
O 67.9742 32.4749 68.5206
C 67.7402 33.2979 69.3936
C 69.0141 33.7086 70.1374
C 70.1041 34.7816 70.0483
C 70.7857 34.8591 68.6966
C 71.2567 35.3586 67.2962
O 72.499 35.5926 67.1995
O 66.6414 33.7871 69.7315
O 70.4492 35.2886 66.3176
O 70.6934 33.8032 70.9372
C 69.704 36.1536 70.6668
O 70.6235 36.9669 71.0397
O 68.5158 36.4962 70.6142
H 70.6604 34.1845 71.7617
O 76.9354 47.6746 52.0524
C 76.6957 48.7516 51.4009
C 77.0866 49.0634 49.9349
C 76.641 49.0488 48.4495
C 76.5445 47.5677 48.092
C 76.7269 46.1012 48.3078
O 76.6678 45.3226 47.3411
O 76.0572 49.7013 51.9042
O 77.0653 45.738 49.4706
O 77.9065 49.5876 48.9011
C 75.4469 49.946 48.3819
O 74.3221 49.3975 48.6356
O 75.5872 51.0927 47.7988
H 78.4653 49.7287 48.178
O 30.8475 38.2808 64.7888
C 30.7382 39.1769 65.6655
C 29.9653 40.454 65.3554
C 29.8287 41.936 65.4006
C 29.2742 42.5024 64.0388
C 29.8328 43.5843 63.1005
O 29.5721 44.752 63.4522
O 31.3365 39.1578 66.7669
O 30.6663 43.1712 62.2294
O 28.5594 41.4356 65.7684
C 30.9075 42.7754 66.1474
O 31.7863 43.4092 65.6025
O 30.7232 42.7867 67.3687
H 28.7259 40.6228 66.2034
O 72.2873 59.7178 58.5303
C 71.9442 60.8786 58.8836
C 72.2677 62.0191 57.9037
C 71.7166 62.5835 56.6277
C 72.469 61.9936 55.416
C 72.4706 60.9606 54.2988
O 73.3169 60.0186 54.3271
O 71.2049 61.2758 59.7681
O 71.7229 61.02 53.2825
O 72.6955 63.5689 56.9376
C 70.1911 62.9703 56.6227
O 69.4719 62.0323 57.0909
O 69.788 64.1145 56.4307
H 72.8202 64.0304 56.1295
O 75.0811 35.31 60.8195
C 74.9955 36.2493 59.998
C 76.1105 36.4538 58.9512
C 76.4087 36.8351 57.5316
C 75.8334 35.7148 56.6775
C 74.9487 35.224 55.537
O 75.0761 35.6532 54.3355
O 73.9747 37.0088 59.8104
O 74.1658 34.2683 55.8536
O 77.5589 36.0859 57.8673
C 75.8919 38.1863 57.1893
O 76.635 38.761 56.3817
O 74.9356 38.7606 57.7406
H 78.3191 36.5747 57.607
O 35.7446 62.3237 60.655
C 35.1023 62.7525 59.6797
C 33.6087 62.4712 59.5039
C 32.3176 61.6088 59.4999
C 31.993 61.0313 58.1168
C 32.6501 60.2794 56.9863
O 32.286 59.1034 56.7882
O 35.5932 63.3251 58.7208
O 33.6417 60.8463 56.4896
O 31.7243 62.666 58.879
C 32.3239 60.4977 60.5269
O 33.2611 59.685 60.6509
O 31.2741 60.3295 61.1938
H 30.8371 62.4115 58.5802
O 42.4948 59.043 37.187
C 43.2966 58.5806 36.3348
C 42.6893 57.8595 35.2051
C 42.052 56.6901 34.4209
C 43.2083 55.9306 33.6764
C 44.0739 54.6681 33.7423
O 43.4311 53.6485 33.7461
O 44.5517 58.6094 36.4158
O 45.3273 54.7341 33.8995
O 41.1126 57.262 33.4891
C 41.0858 55.8226 35.1788
O 40.5014 56.2825 36.175
O 40.7449 54.7421 34.629
H 40.2783 57.1245 33.8312
O 58.5778 54.8278 33.9732
C 59.4932 54.5242 33.1555
C 60.7888 55.4155 33.2105
C 61.5811 56.5892 33.8401
C 60.623 57.6512 34.3452
C 59.3936 58.1956 35.0228
O 59.6261 59.2412 35.6628
O 59.47 53.5902 32.3535
O 58.304 57.5687 35.0009
O 61.6297 56.6459 32.3923
C 62.5779 56.2658 34.9886
O 62.4282 55.4121 35.8672
O 63.5187 57.0755 35.0695
H 62.5215 56.3884 32.1167
O 66.3806 27.4275 60.6084
C 66.3861 26.742 61.6574
C 65.3378 25.6343 61.8375
C 64.6356 24.3913 61.2356
C 63.2519 24.4099 61.9603
C 61.9524 24.8276 62.6787
O 61.0166 23.9798 62.6557
O 67.0105 27.1427 62.6326
O 61.9202 25.9133 63.285
O 65.3431 24.2362 62.4277
C 64.4943 24.436 59.7103
O 64.1797 25.4806 59.1392
O 64.8744 23.4253 59.1239
H 65.2003 25.0016 62.9907
O 55.6658 33.4528 75.5842
C 55.8322 34.3499 76.4318
C 57.2935 34.5143 76.9105
C 58.6672 35.0655 76.9385
C 59.4963 34.3281 75.9003
C 60.1488 33.4854 74.7974
O 59.3805 32.7691 74.1099
O 54.9608 35.1851 76.718
O 61.3434 33.6986 74.6593
O 58.4771 33.7861 77.5257
C 58.7751 36.6094 76.9744
O 59.7547 37.0737 76.3714
O 58.214 37.1506 77.9217
H 57.7429 33.3369 77.1411
O 51.9806 64.6444 72.4787
C 51.7745 65.6651 71.7486
C 50.4029 66.1747 71.5889
C 49.241 66.2932 70.5394
C 49.707 67.0917 69.3522
C 49.941 66.7343 67.881
O 49.2945 67.4647 67.0681
O 52.62 66.3329 71.1725
O 50.9029 66.0264 67.5814
O 48.7371 66.909 71.7598
C 48.6995 64.8756 70.2301
O 49.5614 64.1097 69.7905
O 47.4948 64.5632 70.3913
H 49.2554 67.652 71.9883
O 49.0784 30.008 37.4856
C 49.0757 30.9785 36.7019
C 47.6777 31.4562 36.4992
C 46.2574 31.8681 36.1895
C 45.4133 31.27 37.3554
C 44.1032 31.0926 38.1558
O 43.9145 30.2178 38.9922
O 49.9243 31.5085 36.0004
O 43.3102 32.0409 37.8797
O 46.1622 30.9361 35.0424
C 46.0477 33.3744 35.8281
O 46.8915 33.9622 35.1575
O 44.8468 33.7732 35.925
H 45.6921 31.4379 34.4319
O 32.5878 48.6195 70.209
C 32.3514 48.8826 69.0109
C 31.2272 49.9333 68.6331
C 31.0338 51.4179 68.1247
C 30.7936 51.426 66.5715
C 31.0741 51.5264 65.0114
O 30.373 50.7925 64.2486
O 32.8823 48.1766 68.0857
O 31.7589 52.4968 64.65
O 29.7771 50.7782 68.3338
C 32.1772 52.3923 68.4822
O 32.4429 52.7229 69.6592
O 32.9418 52.7901 67.546
H 29.1717 51.4334 68.5712
O 76.06 37.4235 51.8129
C 75.8624 37.5768 50.5695
C 76.756 38.5322 49.8174
C 76.5914 40.0452 49.7323
C 76.887 40.5695 51.1413
C 76.2042 41.266 52.2862
O 76.6692 42.3501 52.6755
O 75.0935 36.8465 49.8645
O 75.1047 40.7944 52.7268
O 77.8532 39.8997 49.1628
C 75.2988 40.7106 49.1826
O 74.1858 40.1933 49.395
O 75.432 41.8433 48.7561
H 78.4104 40.6271 49.4442
O 37.2975 54.9292 73.9469
C 37.3803 53.6898 73.7906
C 36.9004 52.7918 74.9397
C 37.4553 51.3724 75.2715
C 36.5096 50.3066 74.7689
C 36.5948 49.6834 73.3645
O 37.3763 48.7106 73.2654
O 37.8782 53.1971 72.7574
O 35.9103 50.2211 72.4673
O 36.4686 51.8022 76.1651
C 38.9513 51.109 75.3262
O 39.5792 51.2136 74.2374
O 39.3951 50.8536 76.4097
H 36.8311 52.5887 76.6154
O 61.9845 55.25 78.1027
C 60.7601 55.4133 77.893
C 59.9005 54.6773 78.8445
C 59.0805 53.3492 78.7274
C 57.5666 53.5564 78.8219
C 56.3664 52.7725 78.4117
O 56.0262 51.8036 79.0984
O 60.2435 56.2934 77.1814
O 55.9489 53.0602 77.245
O 59.0824 53.6624 80.0939
C 59.4506 52.3538 77.6641
O 59.4644 52.7458 76.4517
O 59.5031 51.1836 78.0011
H 59.9377 53.6783 80.4356
O 49.1752 69.3434 49.9
C 49.3234 69.2852 48.6291
C 50.4906 70.0247 48.0273
C 51.9956 69.9446 47.8156
C 52.2194 69.3748 46.394
C 53.3564 69.026 45.4558
O 53.1536 69.4404 44.244
O 48.5451 68.771 47.827
O 54.3178 68.3878 45.8791
O 51.8553 71.0065 46.8635
C 52.7625 69.1726 48.9307
O 52.1459 68.6643 49.8545
O 54.0228 69.3469 48.9082
H 52.4723 71.6749 47.0232
O 43.7249 42.3196 77.7785
C 43.9756 41.396 78.5551
C 45.3171 41.5375 79.2938
C 46.5408 42.324 79.9208
C 47.9149 41.6765 79.517
C 48.874 40.8266 78.7281
O 50.0198 41.348 78.6756
O 43.1867 40.493 78.848
O 48.5501 39.7294 78.1758
O 46.4551 41.8025 81.2501
C 46.5024 43.8799 79.5074
O 47.3642 44.6465 80.0478
O 45.8068 44.1903 78.5371
H 46.3899 40.8632 81.1563
O 70.5015 30.8761 51.0074
C 70.1729 30.0051 51.875
C 69.6182 28.7154 51.3687
C 68.9408 27.3673 51.5139
C 68.6678 26.9494 53.0173
C 68.0726 26.6179 54.3579
O 67.1941 25.7563 54.3973
O 70.226 30.0912 53.1196
O 68.5015 27.1221 55.3849
O 70.2373 26.7016 51.5232
C 67.7839 27.0689 50.538
O 67.7095 27.667 49.436
O 67.0465 26.0792 50.8396
H 70.1668 25.7217 51.3928
O 43.1029 59.6773 72.2622
C 42.2811 60.0901 73.1188
C 42.7802 60.6229 74.3917
C 43.8196 61.645 74.9898
C 44.9983 60.8148 75.4888
C 46.1803 59.8489 75.5005
O 46.0788 58.8624 76.2596
O 41.0466 60.3219 72.8809
O 47.0648 60.034 74.7224
O 43.1619 60.808 75.9301
C 44.2858 62.5936 73.8576
O 45.0512 62.1781 72.9798
O 43.7206 63.6781 73.7744
H 42.2228 60.9952 75.7173
O 39.9062 28.7306 45.422
C 39.5809 28.0346 44.4432
C 38.7934 28.6427 43.2788
C 38.3327 29.8922 42.5403
C 39.1988 30.2207 41.3276
C 40.3713 30.7936 40.5141
O 41.4513 30.1757 40.5275
O 39.7339 26.8049 44.3317
O 40.0715 31.7672 39.7612
O 38.0354 28.671 41.9119
C 37.546 31.0611 43.1415
O 36.4238 31.3374 42.6483
O 38.0098 31.4147 44.2389
H 38.1326 28.8422 40.9987
O 50.6468 44.8823 81.1016
C 51.7507 44.9413 80.561
C 52.4112 46.3412 80.5006
C 53.7321 47.139 80.4841
C 54.9379 46.3775 79.8914
C 56.1835 45.6881 79.4148
O 57.2984 46.3042 79.4756
O 52.3287 44.0163 79.9499
O 56.0062 44.5558 78.8777
O 53.3625 47.2953 81.8205
C 53.6066 48.5599 79.8876
O 52.7163 48.8084 79.0174
O 54.299 49.4848 80.3667
H 52.4146 47.3354 81.7624
O 34.1858 60.2905 46.8658
C 34.1438 60.5533 48.0944
C 34.0905 61.9934 48.3732
C 34.8735 63.245 48.8275
C 34.2188 63.6697 50.2104
C 33.9177 62.788 51.4175
O 34.5956 63.1798 52.4446
O 34.5581 59.7859 48.9859
O 32.9346 61.9912 51.3313
O 33.5849 63.6279 48.4005
C 36.3518 62.8808 48.9511
O 36.7417 62.1464 49.921
O 37.1606 63.4398 48.1458
H 32.9627 63.3702 49.0537
O 67.9772 55.4495 71.0017
C 68.1181 56.7032 70.9019
C 68.1085 57.4566 72.199
C 67.4572 57.7113 73.612
C 66.0161 58.3229 73.5586
C 64.9568 59.2499 73.0807
O 65.2426 59.9316 72.0841
O 68.4057 57.324 69.8143
O 63.8508 59.2557 73.5545
O 68.5795 58.552 73.7667
C 67.4183 56.4214 74.4514
O 66.5896 55.5193 74.2172
O 68.3205 56.3154 75.3477
H 69.2571 57.9715 73.468
O 42.1672 35.0964 75.7826
C 41.7678 36.0234 75.0565
C 40.3501 35.9843 74.5272
C 39.2255 35.3138 73.755
C 38.105 36.3469 73.662
C 37.1465 37.3332 73.1807
O 37.7254 38.404 72.9181
O 42.4703 37.0287 74.7474
O 35.9118 37.1558 73.2311
O 38.3497 34.8539 74.7289
C 39.7565 34.7675 72.3834
O 39.1705 35.1216 71.3731
O 40.6933 33.9434 72.4692
H 37.6625 34.3545 74.366
O 59.0645 45.1684 31.7844
C 59.7126 44.5088 32.5622
C 61.2277 44.7061 32.7975
C 62.6755 44.41 33.248
C 63.3154 45.8192 33.6511
C 64.0688 46.7868 34.4358
O 64.8977 46.2981 35.2341
O 59.2233 43.5121 33.1755
O 63.5492 47.9408 34.6401
O 63.0379 44.187 31.8693
C 62.7351 43.2375 34.2945
O 63.4516 43.3902 35.2742
O 62.2408 42.1172 34.0535
H 62.3081 44.1047 31.2897
O 35.9893 34.2168 42.1288
C 34.8784 34.7214 41.9395
C 33.6963 34.2515 42.7036
C 32.5874 34.6035 43.6989
C 32.7234 33.6879 44.9182
C 33.8116 33.2258 45.8422
O 34.4399 32.2845 45.4321
O 34.6754 35.6095 41.1304
O 33.8804 33.7861 46.9904
O 32.1048 33.4436 43.1861
C 32.3834 36.1622 44.0126
O 32.6848 36.9865 43.1646
O 31.9639 36.515 45.1763
H 31.2269 33.2091 43.5085
O 59.6689 62.0744 37.1777
C 59.6818 63.1471 37.7512
C 58.261 63.6826 38.1482
C 56.8117 63.7924 37.6187
C 56.5407 62.7549 36.508
C 56.1189 61.2762 36.2319
O 55.1903 61.1936 35.3462
O 60.7541 63.8021 38.0052
O 56.5998 60.4217 37.0083
O 56.5637 64.1833 36.3203
C 55.7512 63.7109 38.7312
O 55.6826 62.5836 39.3137
O 55.2226 64.786 39.1118
H 57.036 63.6494 35.6957
O 28.8384 42.6928 49.4877
C 28.0067 43.122 50.3063
C 27.2954 44.3786 49.8603
C 27.7012 45.6412 49.0562
C 27.5481 46.817 49.8654
C 27.8804 47.8476 50.8507
O 28.7289 48.7343 50.5354
O 27.7655 42.6495 51.4434
O 27.305 47.715 51.9833
O 26.2966 45.3758 49.1039
C 28.9445 45.6097 48.1757
O 30.0927 45.5862 48.739
O 28.8175 45.5412 46.896
H 25.9079 45.9515 48.5
O 46.8935 51.4501 30.5072
C 46.0171 50.8949 31.1617
C 45.6098 49.5009 30.6448
C 46.0143 48.161 31.1828
C 47.4848 47.883 31.1319
C 48.9183 47.6518 31.6822
O 49.4994 48.4946 32.3566
O 45.3047 51.4584 32.0353
O 49.4796 46.6838 31.2566
O 45.4802 48.1476 29.863
C 45.449 47.8047 32.5355
O 44.6596 46.814 32.5261
O 45.9108 48.4259 33.5039
H 45.6811 48.9051 29.3784
O 49.3067 62.7111 37.5342
C 48.9058 61.7199 36.9106
C 49.8137 61.0204 35.8854
C 50.1593 60.2169 34.6446
C 49.0293 59.1783 34.3498
C 48.1299 57.9484 34.5127
O 47.118 57.9451 35.2183
O 47.7746 61.1222 37.023
O 48.4951 56.8803 33.9692
O 49.8356 61.0826 33.5343
C 51.6025 59.5875 34.7199
O 51.7606 58.3701 34.4717
O 52.5682 60.3056 34.9511
H 50.4201 61.8383 33.6446
O 49.0295 38.8877 33.271
C 48.5791 39.4799 32.2855
C 47.3442 38.9158 31.6163
C 45.786 38.9921 31.7753
C 45.2893 37.5532 31.8694
C 44.6458 36.4654 32.6359
O 44.9445 35.3154 32.279
O 49.1238 40.4741 31.7612
O 43.8384 36.7925 33.514
O 45.069 38.9952 30.585
C 45.4524 39.8853 32.9485
O 45.6453 39.5306 34.1389
O 45.1103 41.0517 32.616
H 45.115 39.8861 30.2676
O 72.765 34.7154 45.7755
C 72.3177 33.6997 45.2271
C 72.6355 33.6179 43.7274
C 71.7355 33.2924 42.5412
C 70.7359 34.4519 42.1981
C 69.6341 35.352 41.6675
O 69.8523 36.566 41.8767
O 71.4445 32.9265 45.7382
O 68.4519 34.847 41.5897
O 72.9813 33.6429 42.1373
C 71.2187 31.8754 42.6853
O 70.1737 31.7593 43.3416
O 71.8276 30.9855 42.0946
H 73.306 32.8665 41.6896
O 44.554 61.9432 38.3195
C 44.9528 62.9111 38.9735
C 43.8583 63.6382 39.7629
C 42.6336 64.2372 40.4098
C 41.546 63.0942 40.3326
C 40.9834 61.7538 40.7919
O 41.0528 61.4232 42.0058
O 45.9931 63.5372 38.7582
O 40.4548 60.9786 39.9411
O 42.9169 65.1363 39.3661
C 43.039 64.5861 41.8861
O 43.2096 63.6106 42.6534
O 43.2002 65.7913 42.2784
H 42.0676 65.4603 39.0695
O 67.1962 64.908 55.4528
C 66.5754 65.9823 55.6511
C 67.0102 66.8749 56.8091
C 66.8912 67.3655 58.2723
C 65.4229 67.3161 58.7117
C 64.0005 67.3735 59.2887
O 63.0529 67.0101 58.5536
O 65.686 66.4581 54.8987
O 63.9178 67.7412 60.4653
O 66.5664 68.6866 57.8307
C 67.7118 66.5359 59.3316
O 68.0474 65.2981 59.0569
O 67.9507 67.0939 60.4574
H 66.0427 69.1067 58.5305
O 64.7131 63.9268 68.6666
C 64.7491 64.8152 67.827
C 65.9585 64.8826 67.0249
C 66.7343 64.3534 65.8135
C 67.5789 63.1746 66.2143
C 67.8811 61.6794 66.0903
O 66.9383 60.8528 66.3292
O 63.8403 65.6992 67.5841
O 69.0366 61.4842 65.6504
O 67.9421 64.9245 65.6792
C 65.6725 63.9481 64.6838
O 64.7782 63.0912 64.9729
O 65.8503 64.4988 63.5592
H 68.1528 64.8809 64.7014
O 31.4512 35.1022 59.7409
C 31.9441 34.5497 60.7045
C 32.5831 33.1218 60.6692
C 32.4468 31.8455 59.9563