6293
Atoms. Timestep: 0
C 6.12113 5.47478 -22.0576
C 6.66308 6.18462 -23.3817
C 7.79774 5.52328 -24.213
S 7.36559 5.11889 -20.6691
O 8.57161 6.25429 -24.8644
O 7.95849 4.28552 -24.0977
Na -4.98185 20.3704 -1.92711
H 5.74715 4.49873 -22.3291
H 5.25943 5.97514 -21.768
H 6.97681 7.20132 -23.2598
H 5.81247 6.28591 -24.0418
C 11.0239 0.656104 -24.9326
C 9.67844 1.46738 -24.9396
C 9.16499 1.65739 -26.3377
S 11.6205 0.238008 -23.2306
O 9.71653 1.05834 -27.2869
O 8.18919 2.45043 -26.4309
Na 306.932 472.594 437.422
H 11.7319 1.34135 -25.5073
H 10.957 -0.216666 -25.5329
H 9.93927 2.47869 -24.5902
H 8.9057 1.06055 -24.2423
C 11.744 10.5842 -23.467
C 11.7582 9.37229 -24.3981
C 13.1005 8.76143 -24.8044
S 11.7863 9.80197 -21.7878
O 14.0706 9.52194 -24.7548
O 13.0944 7.62173 -25.3237
Na -25.4173 -392.004 295.921
H 10.8828 11.2204 -23.4592
H 12.5063 11.4108 -23.6429
H 11.2263 9.73496 -25.2121
H 11.1432 8.56226 -24.0601
C 6.08006 0.375566 -23.1163
C 5.4374 1.74628 -23.4569
C 4.07949 2.08067 -22.9283
S 6.91205 0.421437 -21.5184
O 3.2441 2.23659 -23.8626
O 3.88357 2.47264 -21.7327
Na -32.6621 -146.67 250.21
H 6.89385 0.248606 -23.847
H 5.36379 -0.479355 -23.1804
H 5.38861 1.79439 -24.5896
H 6.16628 2.55975 -23.142
C 12.444 4.30457 -25.4825
C 11.8896 3.82301 -26.8787
C 12.9984 3.67862 -27.8773
S 13.5528 3.08483 -24.6767
O 13.1715 2.62201 -28.4976
O 13.4705 4.77957 -28.2604
Na 9.53164 13.5461 25.675
H 12.9095 5.29612 -25.4781
H 11.5542 4.39649 -24.884
H 11.133 4.5027 -27.1886
H 11.3839 2.92138 -26.6283
C 6.31954 9.4246 -21.1835
C 5.63742 10.7303 -21.4893
C 6.34335 11.6001 -22.4795
S 7.56118 9.74852 -19.9303
O 5.8676 12.7726 -22.4264
O 7.26472 11.1323 -23.1898
Na 337.885 -489.176 241.506
H 6.75036 8.99644 -22.0553
H 5.57165 8.76574 -20.8919
H 5.6146 11.2339 -20.5571
H 4.64403 10.5326 -21.907
C 7.79467 -2.37543 -24.3515
C 8.3998 -2.89955 -25.7191
C 7.57415 -2.53002 -26.9491
S 9.12281 -1.91661 -23.0898
O 7.3526 -3.40918 -27.7821
O 7.33938 -1.31351 -27.1093
Na 282.937 1.14731 -321.184
H 6.90108 -2.94843 -23.9653
H 7.25322 -1.47704 -24.5969
H 8.40809 -4.00323 -25.7239
H 9.41217 -2.53471 -25.8271
C 18.8661 10.113 -24.4042
C 19.5425 11.4492 -24.678
C 18.7138 12.6343 -24.2614
S 19.1023 9.66551 -22.6426
O 17.5382 12.4734 -23.8578
O 19.2678 13.7405 -24.405
Na 32.1396 3.80788 20.5686
H 19.3761 9.37983 -25.0009
H 17.8134 10.0486 -24.6727
H 19.6823 11.4724 -25.7735
H 20.4521 11.4539 -24.2075
C 2.30787 5.31267 -20.9979
C 1.92011 6.77803 -21.0693
C 1.39238 7.11651 -22.4149
S 2.74128 4.99398 -19.2684
O 1.40777 6.2211 -23.3264
O 0.717814 8.15221 -22.4473
Na 43.4896 -15.9606 -7.62835
H 3.22871 5.24399 -21.5881
H 1.62426 4.52291 -21.2905
H 2.77932 7.45105 -20.8365
H 1.1715 6.84058 -20.2695
C 13.2057 -3.11443 -26.1855
C 13.9076 -2.89595 -27.5215
C 13.4835 -1.62814 -28.3219
S 13.9514 -2.31828 -24.7256
O 14.1649 -1.19927 -29.2565
O 12.4122 -1.08678 -27.9293
Na -226.448 304.792 -361.225
H 13.1842 -4.11239 -25.8606
H 12.1431 -2.89454 -26.3855
H 13.6798 -3.76054 -28.1085
H 14.9733 -2.86679 -27.3289
C 9.271 12.8644 -20.9887
C 9.79621 13.6311 -22.2217
C 9.3389 15.0648 -22.1869
S 10.161 13.2306 -19.4168
O 8.14893 15.2421 -22.2511
O 10.1513 15.9951 -21.9715
Na -460.171 228.805 258.592
H 9.27297 11.8235 -21.2965
H 8.15653 13.06 -20.8911
H 9.51487 13.0428 -23.0965
H 10.8504 13.7614 -22.3294
C 2.60237 -0.906259 -20.3492
C 2.90304 -1.49013 -21.7496
C 1.64002 -1.34057 -22.5327
S 3.49225 -1.81933 -19.0883
O 1.66981 -0.310273 -23.3126
O 0.657979 -2.09934 -22.4218
Na 390.98 24.7536 -495.816
H 1.51691 -1.1271 -20.0378
H 2.7977 0.103282 -20.1802
H 2.96613 -2.58124 -21.6537
H 3.81628 -1.093 -22.2365
C 18.4325 5.02027 -25.5404
C 17.9523 6.34442 -26.1323
C 16.4456 6.48645 -26.3356
S 18.4893 4.95678 -23.7204
O 16.0151 7.6718 -26.5885
O 15.7483 5.46004 -26.3285
Na -474.999 -132.555 121.779
H 19.4246 4.8181 -25.9056
H 17.8884 4.18022 -25.9552
H 18.5158 6.50825 -27.0406
H 18.2568 7.11976 -25.4349
C 2.79191 10.3297 -19.3902
C 1.29664 10.5515 -19.4389
C 0.832261 11.9117 -19.0279
S 3.30305 9.83528 -17.7561
O 1.65971 12.8245 -18.8174
O -0.366764 11.98 -18.6731
Na -3.8164 3.49765 16.9452
H 3.4859 11.0908 -19.8672
H 2.97333 9.49435 -20.0252
H 0.797252 9.89187 -18.6848
H 0.805661 10.3379 -20.3663
C 10.556 -6.34224 -24.8214
C 10.175 -5.87123 -26.2589
C 11.0009 -6.57203 -27.3472
S 11.275 -4.91339 -23.8775
O 10.3128 -7.24473 -28.163
O 12.2248 -6.44195 -27.4238
Na -336.703 309.955 -192.464
H 11.3049 -7.16676 -24.9936
H 9.71065 -6.69863 -24.3098
H 10.3074 -4.79853 -26.3967
H 9.10113 -6.11717 -26.2617
C 14.3212 13.5854 -22.4342
C 13.9604 14.901 -23.1293
C 15.1557 15.7634 -23.5728
S 14.2171 13.6987 -20.5872
O 16.0762 15.1889 -24.1706
O 15.0756 16.9474 -23.2293
Na 56.8138 12.4029 -11.8652
H 15.2872 13.1825 -22.8073
H 13.5775 12.7799 -22.6805
H 13.2186 15.3858 -22.4932
H 13.3412 14.6329 -23.9995
C 0.217415 2.66232 -19.5803
C -0.680257 3.91354 -19.706
C -2.12658 3.83265 -19.118
S 0.850725 2.59702 -17.9004
O -2.66722 5.00131 -19.1513
O -2.5707 2.73732 -18.7958
Na -14.3899 3.21677 -6.23183
H 1.04127 2.8522 -20.2043
H -0.139792 1.77641 -20.0483
H -0.727634 4.17151 -20.7658
H -0.302051 4.77039 -19.2755
C 15.7738 0.597069 -26.8014
C 16.7052 1.62662 -27.4735
C 17.9748 1.03729 -28.0927
S 16.4229 0.239966 -25.1068
O 18.2622 -0.160244 -27.8903
O 18.7031 1.7969 -28.8021
Na 19.4231 -20.4015 -21.4955
H 15.8804 -0.344697 -27.4178
H 14.703 0.810295 -26.8011
H 17.0277 2.43712 -26.8505
H 16.1755 2.1527 -28.267
C 5.38536 14.2769 -17.715
C 5.02034 13.629 -19.1013
C 4.43423 14.7142 -19.9193
S 6.38409 13.1875 -16.7253
O 5.20076 15.1155 -20.8179
O 3.16722 14.9462 -19.9469
Na 6.1795 9.85217 -25.6554
H 4.49309 14.6013 -17.2258
H 5.9969 15.1438 -17.9142
H 4.30184 12.7921 -19.0293
H 5.93271 13.2474 -19.6541
C 1.92832 -5.68786 -21.503
C 0.353836 -5.70342 -21.5019
C -0.40402 -6.89457 -20.8749
S 2.73923 -5.57494 -19.8852
O 0.0749115 -8.01889 -20.9929
O -1.54382 -6.64251 -20.3326
Na 225.846 227.068 -399.511
H 2.33848 -4.82747 -22.0793
H 2.28246 -6.53347 -22.0437
H 0.0800119 -5.55875 -22.4991
H -0.0359724 -4.75185 -21.0021
C 21.4675 12.4426 -21.5928
C 22.871 12.5123 -22.1607
C 23.1088 13.6113 -23.1836
S 21.0712 11.1266 -20.2856
O 24.1823 14.2098 -23.0161
O 22.3345 13.6366 -24.1804
Na 33.0808 22.8736 -15.4409
H 20.834 12.2101 -22.4599
H 20.9974 13.3996 -21.2461
H 23.2044 11.6116 -22.5026
H 23.5143 12.8113 -21.3214
C -1.3075 8.15174 -15.6369
C -1.45105 9.03891 -16.8711
C -1.44889 8.25487 -18.2316
S 0.134469 7.05245 -15.3434
O -2.36918 8.48998 -19.1099
O -0.517162 7.43968 -18.3545
Na 11.4565 -6.27348 23.1434
H -2.16441 7.4815 -15.7535
H -1.44791 8.71858 -14.7515
H -0.732131 9.85333 -16.9502
H -2.34886 9.57161 -16.7467
C 16.8616 -5.81357 -24.5062
C 16.4696 -5.17665 -25.8519
C 16.3891 -6.10558 -27.0456
S 16.7573 -4.66869 -23.1115
O 17.1895 -7.02294 -27.2033
O 15.3923 -5.77835 -27.7644
Na -0.24785 -8.24715 21.5872
H 17.8892 -6.17918 -24.5661
H 16.15 -6.62325 -24.3582
H 17.0275 -4.27615 -26.065
H 15.5289 -4.74272 -25.6347
C 12.7311 17.5174 -19.2022
C 13.5856 17.5818 -20.4514
C 14.6042 18.6644 -20.2428
S 13.0644 16.1328 -18.1034
O 15.7958 18.4216 -20.2808
O 14.203 19.8049 -19.97
Na 101.87 282.374 25.1611
H 12.917 18.3645 -18.6081
H 11.6929 17.5644 -19.5099
H 12.8995 17.7391 -21.2906
H 14.1051 16.652 -20.4663
C -1.29546 -1.09866 -18.5856
C -1.86856 -1.82117 -19.7851
C -2.76698 -3.06444 -19.581
S 0.0441385 -1.99174 -17.6469
O -2.27612 -3.99866 -18.9871
O -3.94592 -2.98519 -20.0678
Na 28.6189 244.116 -452.661
H -2.04118 -1.14571 -17.8323
H -1.00894 -0.0704654 -18.7061
H -1.04704 -2.08197 -20.4687
H -2.4909 -1.03746 -20.323
C 21.6102 1.05087 -24.9901
C 21.6138 0.433185 -26.3438
C 22.9246 -0.0298891 -26.9337
S 21.563 -0.145652 -23.5718
O 22.8518 -0.781571 -27.9673
O 23.9362 0.0277902 -26.1613
Na -266.066 -245.716 -204.668
H 20.6907 1.68529 -25.1382
H 22.4409 1.75076 -24.8823
H 21.2363 1.16327 -27.0768
H 20.8545 -0.31777 -26.4686
C 2.0194 13.8769 -15.3161
C 0.627687 14.5806 -15.1551
C 0.646125 16.073 -15.3998
S 2.61019 13.5389 -13.5917
O 0.14849 16.5129 -16.4523
O 1.26136 16.7716 -14.5683
Na 4.36287 -34.4978 10.8518
H 2.70565 14.4634 -15.8834
H 1.87977 12.9464 -15.8646
H 0.203201 14.4521 -14.1691
H -0.0585339 14.1578 -15.8083
C 6.97111 -7.22089 -22.9323
C 6.56289 -6.35181 -24.1629
C 5.16406 -5.74935 -24.0475
S 7.29078 -6.40167 -21.3311
O 4.7502 -4.91513 -24.942
O 4.59263 -5.98133 -22.9532
Na 23.052 -22.3365 9.13242
H 7.95209 -7.63602 -23.1638
H 6.22552 -7.99524 -22.6928
H 6.65954 -6.98976 -25.0304
H 7.23532 -5.59706 -24.4178
C 17.3922 14.3893 -20.844
C 18.5473 15.0192 -21.5856
C 19.2798 16.1056 -20.8418
S 17.8748 13.4576 -19.2712
O 20.0826 15.7488 -19.9944
O 19.127 17.2908 -21.2394
Na 88.1404 474.364 394.527
H 16.9171 13.7546 -21.5939
H 16.6561 15.1688 -20.5922
H 18.2431 15.3751 -22.5966
H 19.2039 14.215 -21.7651
C -3.83429 4.26364 -14.4332
C -4.09042 3.24255 -15.4996
C -5.41169 3.33314 -16.2592
S -2.34004 3.8173 -13.462
O -6.24207 4.091 -15.7733
O -5.55901 2.62702 -17.2922
Na 493.546 -422.976 -452.612
H -4.66856 4.23866 -13.7457
H -3.64078 5.22614 -14.9267
H -3.97324 2.20905 -15.1026
H -3.32642 3.37396 -16.2111
C 19.1964 -3.06666 -25.146
C 20.6648 -3.11271 -25.6969
C 20.5962 -3.72877 -27.083
S 19.1046 -2.34404 -23.4133
O 20.2118 -4.94419 -27.167
O 20.7902 -2.95051 -28.0424
Na -17.1936 22.1665 5.62064
H 18.7096 -4.02702 -25.1381
H 18.6974 -2.32198 -25.8317
H 21.2339 -3.73781 -24.9356
H 21.1785 -2.16917 -25.7146
C 9.16794 17.2867 -18.2191
C 8.17812 18.3845 -18.4091
C 6.94947 17.9867 -19.1764
S 8.59662 16.0619 -16.9719
O 7.1398 17.886 -20.41
O 5.87654 17.7455 -18.5652
Na -492.723 -228.534 -212.493
H 10.1232 17.7541 -17.8685
H 9.38208 16.7682 -19.1748
H 8.69463 19.1349 -18.9861
H 7.8732 18.7017 -17.4106
C 0.487742 -8.86291 -17.0862
C 0.420888 -10.1449 -17.9174
C 0.46899 -11.4706 -17.0764
S 2.08544 -8.47595 -16.2486
O 1.35418 -12.2686 -17.3353
O -0.436624 -11.56 -16.2191
Na 281.525 -174.35 364.371
H -0.247745 -8.75787 -16.3457
H 0.273951 -8.07578 -17.8245
H 1.07886 -10.2553 -18.7718
H -0.551273 -10.0867 -18.3699
C 21.341 7.18412 -25.2798
C 22.5341 7.53366 -26.193
C 22.395 8.9994 -26.6815
S 21.5931 7.55413 -23.5211
O 21.4312 9.33867 -27.4566
O 23.3519 9.68146 -26.3829
Na -8.62139 -10.3805 -6.08621
H 21.1788 6.1671 -25.5051
H 20.4269 7.64364 -25.6087
H 22.6193 6.84314 -27.0167
H 23.5576 7.33263 -25.6614
C -0.968406 11.7315 -14.1981
C -1.99537 12.8977 -13.8399
C -3.26153 12.3895 -13.1527
S -0.26246 10.938 -12.752
O -3.46993 12.7841 -12.0038
O -4.0572 11.7434 -13.8336
Na 445.009 358.566 54.2383
H -1.54001 10.9422 -14.6114
H -0.236017 12.0088 -14.9851
H -2.29445 13.4298 -14.7406
H -1.46583 13.6539 -13.1792
C 13.4409 -7.81372 -23.4277
C 14.114 -8.19818 -24.7257
C 15.1245 -9.34796 -24.652
S 14.4726 -7.15768 -22.0768
O 14.6349 -10.4171 -25.1584
O 16.2245 -9.09965 -24.122
Na 40.703 -4.12514 -19.3169
H 12.7795 -8.68906 -23.1665
H 12.7831 -7.03089 -23.6208
H 14.4459 -7.27861 -25.2157
H 13.3439 -8.54472 -25.3979
C 17.1479 17.8649 -17.7442
C 18.5175 18.5388 -17.5083
C 18.8011 19.5436 -18.5813
S 16.3909 16.9093 -16.3073
O 18.0004 20.459 -18.7011
O 19.9313 19.6097 -19.1096
Na 115.424 111.181 264.345
H 17.0409 17.2473 -18.6692
H 16.4548 18.7463 -17.8821
H 19.2417 17.7274 -17.5699
H 18.5806 19.0268 -16.5614
C -3.50096 -0.821841 -15.3922
C -3.96173 -1.93249 -16.3714
C -4.87954 -3.01998 -15.7344
S -2.37204 -1.52007 -14.3226
O -4.79803 -3.14658 -14.4611
O -5.63437 -3.67284 -16.483
Na 77.0023 145.828 -39.3206
H -4.23302 -0.427101 -14.7777
H -3.05794 -0.0496312 -16.071
H -3.09702 -2.38632 -16.8825
H -4.54036 -1.503 -17.1841
C 24.3263 3.5401 -23.743
C 24.1795 4.47227 -25.0253
C 24.4078 3.6795 -26.2962
S 23.4271 4.39928 -22.3775
O 23.3712 3.61354 -27.0182
O 25.6028 3.41677 -26.647
Na -303.834 -368.836 34.5108
H 25.4217 3.49044 -23.5016
H 23.9545 2.52564 -23.8413
H 24.9474 5.2838 -25.029
H 23.2259 5.04731 -25.0956
C 4.43992 17.5009 -14.8279
C 3.78101 18.8025 -14.3797
C 3.49501 19.7571 -15.5191
S 5.49944 16.8139 -13.4948
O 2.37282 20.3291 -15.4605
O 4.33242 19.9645 -16.4674
Na 13.1545 -15.5667 -25.7315
H 5.05697 17.6844 -15.7441
H 3.67024 16.7616 -15.1174
H 4.46724 19.3754 -13.7513
H 2.87088 18.5996 -13.7873
C 4.43732 -9.00179 -20.9586
C 3.04013 -9.44773 -21.2613
C 2.80283 -10.896 -21.8122
S 4.78879 -9.07665 -19.1677
O 1.8211 -11.5382 -21.4358
O 3.71648 -11.3834 -22.4592
Na 31.022 24.0357 1.69606
H 4.5328 -7.90754 -21.2758
H 5.21319 -9.52116 -21.5485
H 2.54315 -8.75729 -21.9594
H 2.60969 -9.36277 -20.2541
C 25.103 9.42736 -22.8615
C 26.2732 8.81838 -23.5913
C 26.4807 9.2921 -25.1018
S 24.5453 8.38445 -21.428
O 26.764 10.4923 -25.2638
O 26.447 8.4263 -26.0278
Na -31.9766 134.566 283.542
H 24.2208 9.5642 -23.5555
H 25.3177 10.5056 -22.618
H 26.1056 7.73762 -23.7229
H 27.1572 8.9224 -23.0788
C -4.47649 7.49267 -11.845
C -5.80265 8.17948 -11.4416
C -6.12226 9.44216 -12.3366
S -3.17493 8.13307 -10.7241
O -6.23872 10.4583 -11.6047
O -6.21402 9.35019 -13.5831
Na -49.47 -70.5163 103.81
H -4.23239 7.61135 -12.9481
H -4.44013 6.41729 -11.6389
H -5.84954 8.47906 -10.4023
H -6.49873 7.4175 -11.7379
C 21.4902 -5.9593 -23.0673
C 22.4611 -7.12345 -23.0063
C 22.5361 -8.02308 -24.2498
S 21.2493 -5.15664 -21.4258
O 21.9431 -9.16016 -24.2232
O 22.966 -7.49952 -25.296
Na 8.08292 27.9567 -9.21778
H 20.5473 -6.23433 -23.4695
H 21.8252 -5.1767 -23.7348
H 22.1878 -7.82723 -22.2392
H 23.4771 -6.7595 -22.7527
C 13.2775 20.9878 -14.7795
C 13.167 21.0515 -16.2326
C 14.2989 21.9546 -16.7744
S 14.2161 19.4695 -14.4195
O 14.0113 23.1236 -17.008
O 15.4167 21.4202 -17.0165
Na 14.4734 -23.1659 -18.6188
H 12.3256 20.6854 -14.2476
H 13.6762 21.8356 -14.27
H 12.2369 21.5508 -16.4848
H 13.0551 20.1496 -16.8248
C -1.2256 -6.08187 -14.8292
C -1.90295 -6.91443 -13.7573
C -2.88523 -7.98385 -14.2056
S 0.271738 -5.2863 -14.1784
O -3.95764 -8.03831 -13.5093
O -2.56233 -8.68848 -15.2084
Na -397.92 104.379 -229.658
H -2.04618 -5.34301 -15.0423
H -1.00077 -6.64716 -15.7415
H -2.44412 -6.23389 -13.1716
H -1.111 -7.34571 -13.1652
C 27.2264 5.48821 -22.1127
C 28.5796 4.98987 -22.6093
C 28.5484 4.57248 -24.1216
S 26.5963 4.29001 -20.9825
O 27.8861 5.19637 -24.9794
O 29.2417 3.55253 -24.3224
Na -3.42318 -12.456 -7.67521
H 26.566 5.87511 -22.829
H 27.5244 6.39042 -21.5294
H 28.8741 4.18529 -21.9428
H 29.3212 5.79251 -22.4565
C -1.20899 14.1063 -9.01311
C -0.96067 15.6059 -9.18403
C -1.08696 16.0031 -10.6506
S 0.328224 13.1342 -9.33945
O -1.88627 15.3992 -11.3986
O -0.311795 16.8844 -11.081
Na 6.02244 7.98185 -30.2583
H -2.08114 13.8471 -9.6251
H -1.36857 14.029 -7.87448
H -0.0372851 15.8982 -8.77389
H -1.68198 16.145 -8.69798
C 11.3459 -12.0534 -20.9428
C 10.5889 -11.6532 -22.228
C 11.439 -11.8473 -23.4617
S 12.5677 -10.706 -20.5338
O 12.6627 -12.0285 -23.3422
O 10.7276 -11.8438 -24.4568
Na 310.667 359.139 468.101
H 11.7712 -13.0934 -21.0422
H 10.6573 -12.0734 -20.0834
H 10.2343 -10.6401 -22.2448
H 9.72425 -12.3414 -22.2712
C 26.2605 11.4152 -20.3015
C 27.1428 12.6667 -19.9595
C 27.6542 13.4036 -21.2357
S 25.7354 10.497 -18.8124
O 27.8688 12.6758 -22.2293
O 27.5769 14.6496 -21.255
Na -9.26194 -1.44722 -16.1763
H 26.9053 10.7881 -20.9575
H 25.4008 11.5237 -20.904
H 28.0279 12.2896 -19.3389
H 26.5721 13.4304 -19.3448
C -6.33019 1.74796 -12.9159
C -6.92903 0.847961 -14.0576
C -7.74217 -0.283628 -13.5125
S -4.7024 1.33094 -12.2317
O -8.83124 0.0571851 -12.9494
O -7.39227 -1.44551 -13.5914
Na 33.8825 14.8973 15.6103
H -7.02356 1.85953 -12.0967
H -6.38053 2.8192 -13.3282
H -6.23173 0.324689 -14.7359
H -7.67249 1.43704 -14.6193
C 24.951 -3.15779 -23.2396
C 24.1392 -3.31223 -24.548
C 24.7753 -3.69861 -25.8915
S 24.0163 -2.5249 -21.7582
O 24.0076 -3.63983 -26.8662
O 25.9508 -4.06057 -25.9172
Na 69.8362 -313.702 49.5554
H 25.784 -2.50596 -23.499
H 25.3819 -4.14994 -23.0084
H 23.6492 -2.34268 -24.8745
H 23.2342 -3.98473 -24.2875
C 7.0877 21.0692 -10.3876
C 6.07677 21.5682 -11.4008
C 6.40058 21.3038 -12.9196
S 6.91574 19.4002 -9.83274
O 7.33554 20.5089 -13.1792
O 5.78716 21.966 -13.8137
Na 46.4779 369.339 -49.8765
H 7.13201 21.6536 -9.46607
H 8.0369 21.0914 -10.925
H 6.059 22.6768 -11.2663
H 5.01224 21.3644 -11.1609
C 4.83876 -12.8322 -18.9189
C 5.40783 -13.6785 -20.0935
C 6.45264 -12.9311 -20.902
S 5.9816 -12.2421 -17.7125
O 6.52837 -11.6608 -20.8929
O 7.07898 -13.6838 -21.6703
Na 32.8723 18.4388 -17.5199
H 4.15649 -13.4631 -18.3801
H 4.24766 -12.0431 -19.3394
H 4.64324 -14.0219 -20.7571
H 5.83308 -14.5902 -19.7444
C 30.3477 7.25846 -20.4606
C 30.4762 7.90643 -21.8677
C 31.0901 9.301 -21.8886
S 29.2271 8.08755 -19.3402
O 30.9506 10.0789 -22.8849
O 31.8 9.55573 -20.8892
Na 394.285 270.451 50.5562
H 31.3828 7.1769 -20.0857
H 30.0755 6.23405 -20.5654
H 29.5172 8.15814 -22.3097
H 30.9586 7.20683 -22.5072
C -3.93504 10.7187 -8.34273
C -4.18232 12.2036 -7.86493
C -5.34525 12.9641 -8.4722
S -2.30697 10.0365 -7.92006
O -6.21867 12.2432 -9.01863
O -5.49236 14.207 -8.32981
Na 318.969 139.72 145.824
H -4.0793 10.6889 -9.41303
H -4.72436 10.0818 -7.88292
H -3.24067 12.7366 -7.98639
H -4.37667 12.2334 -6.73773
C 16.8871 -12.3744 -20.8061
C 15.9289 -12.4065 -22.0526
C 16.5359 -12.6816 -23.4011
S 16.0701 -11.5603 -19.3488
O 17.7401 -12.4258 -23.6019
O 15.8206 -13.2881 -24.2474
Na 22.0471 28.0728 8.28743
H 17.1338 -13.4094 -20.4356
H 17.7989 -11.9072 -21.1217
H 15.44 -11.4069 -22.1906
H 15.2209 -13.1359 -21.9567
C 18.8558 20.9218 -14.038
C 18.0136 22.136 -14.3524
C 18.4701 22.9786 -15.4755
S 18.0812 19.5686 -13.0033
O 17.9916 24.1132 -15.4845
O 19.203 22.5167 -16.3737
Na 2.22882 -80.3387 -3.68101
H 19.8898 21.1829 -13.7447
H 18.9961 20.482 -15.0524
H 17.9871 22.6843 -13.3565
H 16.9932 21.7333 -14.5935
C -4.15921 -4.37296 -11.5693
C -4.62406 -5.68562 -10.958
C -5.95568 -6.24663 -11.3979
S -2.83733 -3.49296 -10.603
O -6.33609 -7.28275 -10.7706
O -6.62966 -5.68466 -12.2992
Na 335.191 41.4141 -216.181
H -3.84378 -4.53318 -12.5931
H -4.89088 -3.65044 -11.5844
H -4.73091 -5.47531 -9.9004
H -3.92486 -6.5251 -10.9949
C 27.2096 0.8557 -23.0945
C 28.2337 0.385845 -24.113
C 27.8401 -0.856411 -24.9166
S 26.832 -0.358035 -21.8203
O 28.7757 -1.65855 -25.2311
O 26.7268 -0.838212 -25.5377
Na -108.246 -499.992 -298.038
H 27.7214 1.6631 -22.6241
H 26.3788 1.26305 -23.6289
H 29.132 0.102886 -23.5299
H 28.439 1.20595 -24.7611
C 2.50236 17.7539 -10.3964
C 2.29985 19.3135 -10.3609
C 2.16256 19.9745 -8.95008
S 4.0355 17.0507 -9.77597
O 1.43851 19.4186 -8.13073
O 2.82716 20.991 -8.70458
Na -41.745 -39.7155 430.48
H 1.68911 17.4475 -9.75181
H 2.39399 17.372 -11.3497
H 1.43753 19.673 -10.9727
H 3.17423 19.8788 -10.8344
C 9.6311 -15.2841 -17.898
C 9.42827 -14.941 -19.4033
C 9.72761 -16.1658 -20.3287
S 9.61524 -13.7371 -16.9467
O 9.23944 -17.2654 -19.9228
O 10.1878 -15.9649 -21.4971
Na 17.4402 14.1271 -26.865
H 10.5998 -15.8085 -17.6849
H 8.7887 -15.8951 -17.5129
H 10.0118 -14.0821 -19.6525
H 8.41351 -14.6612 -19.669
C 23.7321 14.516 -18.6947
C 23.899 16.0028 -18.2356
C 24.1508 16.8556 -19.4935
S 23.5786 13.5133 -17.1557
O 23.1849 17.1391 -20.1949
O 25.2886 17.3135 -19.7778
Na -42.9958 87.9418 -62.9346
H 22.8112 14.4082 -19.266
H 24.5396 14.0459 -19.2309
H 24.8031 16.1092 -17.5936
H 23.0051 16.3234 -17.7122
C -5.5875 4.94719 -9.27378
C -7.0803 4.41565 -9.18539
C -7.91076 4.15669 -10.496
S -4.38096 3.66482 -8.90948
O -8.88652 3.36976 -10.3954
O -7.53986 4.71859 -11.5789
Na 373.294 409.218 -242.437
H -5.4015 5.60765 -8.39931
H -5.39523 5.53543 -10.1413
H -7.65994 5.19828 -8.64437
H -7.11697 3.63011 -8.49445
C 24.0239 -10.3762 -19.9978
C 22.9787 -10.4053 -21.1255
C 22.239 -11.6685 -21.4472
S 23.4565 -9.7611 -18.3307
O 21.9274 -12.4889 -20.5304
O 21.9556 -11.7963 -22.6702
Na 8.11221 27.4133 6.25309
H 24.8714 -9.74834 -20.2848
H 24.3762 -11.4148 -19.9366
H 23.45 -9.9984 -22.0644
H 22.3261 -9.54703 -20.9351
C 11.8474 22.274 -11.3211
C 10.5442 22.9424 -11.7789
C 10.0532 23.9729 -10.8659
S 11.6549 21.1755 -9.86377
O 8.83081 23.9123 -10.6174
O 10.7967 24.8032 -10.3282
Na -485.774 288.553 -126.498
H 12.5048 23.0867 -11.105
H 12.1665 21.6409 -12.1835
H 9.91906 22.0807 -11.7514
H 10.6316 23.3449 -12.747
C -0.00215248 -10.3209 -12.9334
C -0.837275 -11.3885 -12.2019
C -1.9715 -11.0013 -11.2105
S 1.42761 -9.76411 -12.0433
O -2.19849 -9.77584 -11.0157
O -2.59484 -11.9298 -10.6507
Na 12.7361 23.4389 -19.4465
H -0.705082 -9.50256 -13.1518
H 0.182094 -10.7481 -13.9534
H -0.130452 -12.044 -11.7639
H -1.18947 -11.9967 -13.0547
C 33.6168 6.67695 -16.05
C 34.2282 7.58427 -17.1987
C 34.3872 6.91452 -18.5345
S 31.8557 7.09006 -15.7298
O 34.6246 5.66179 -18.5761
O 34.0936 7.59289 -19.5386
Na -468.991 -376.805 -421.511
H 34.185 6.70733 -15.2032
H 33.5576 5.66264 -16.3983
H 35.2206 7.8484 -16.9705
H 33.6714 8.53329 -17.1856
C -0.0647282 17.6104 -5.99345
C -0.867139 18.7825 -5.35205
C -2.36994 18.6175 -5.60242
S -0.413652 15.9291 -5.37708
O -3.07381 18.786 -4.5977
O -2.80592 18.0466 -6.59799
Na 42.4383 6.7687 10.9214
H 1.03123 17.9192 -5.90405
H -0.400538 17.557 -7.01964
H -0.449895 19.8124 -5.69313
H -0.695413 18.644 -4.31213
C 13.177 -15.4857 -19.4175
C 14.1248 -15.6022 -20.5962
C 15.3526 -16.5657 -20.5096
S 14.0149 -14.8774 -17.9226
O 15.1334 -17.7854 -20.3484
O 16.4787 -16.0407 -20.6448
Na 29.7688 -3.86073 22.001
H 12.5753 -16.4028 -19.3215
H 12.4908 -14.5863 -19.4731
H 14.4222 -14.6383 -20.9665
H 13.4877 -15.9477 -21.4534
C 23.4294 19.6461 -12.8694
C 22.9428 21.1362 -12.7045
C 23.1828 21.8983 -13.967
S 22.6894 18.6541 -11.5479
O 23.7181 23.0118 -13.805
O 22.7059 21.5909 -15.111
Na 66.0498 -67.8199 44.2932
H 24.5037 19.5844 -12.8132
H 23.1337 19.3462 -13.8204
H 23.5274 21.6957 -11.99
H 21.8215 21.1299 -12.5946
C -6.35366 -1.39855 -10.143
C -6.8756 -2.79595 -9.75462
C -8.39869 -2.8983 -10.1137
S -4.72437 -1.06555 -9.33918
O -8.65315 -2.66547 -11.2959
O -9.2302 -3.30616 -9.26505
Na -160.771 380.24 473.038
H -7.05446 -0.619396 -9.83371
H -6.35149 -1.32247 -11.1898
H -6.73977 -3.04209 -8.70008
H -6.28128 -3.55958 -10.2741
C 25.9994 -6.63525 -21.3443
C 27.3759 -7.17059 -21.6483
C 27.3137 -8.26917 -22.715
S 25.9263 -5.68003 -19.76
O 28.1865 -8.27533 -23.583
O 26.3971 -9.11666 -22.5886
Na -472.534 -255.461 311.405
H 25.2463 -7.4275 -21.3286
H 25.7712 -6.11554 -22.2052
H 27.757 -7.68442 -20.8015
H 28.1466 -6.39932 -21.9119
C 6.70979 21.6332 -6.64972
C 5.53225 22.3233 -7.28629
C 5.39071 23.6853 -6.70787
S 6.31483 20.1719 -5.6917
O 5.16156 23.7625 -5.48613
O 5.28913 24.6566 -7.49519
Na -46.3534 185.539 -4.30846
H 7.17345 22.371 -5.96308
H 7.65063 21.309 -7.17098
H 4.63704 21.8155 -7.04896
H 5.69745 22.3829 -8.33999
C 6.49769 -16.5704 -14.7076
C 5.15343 -17.1262 -15.3119
C 4.73399 -16.7258 -16.681
S 6.47252 -14.7793 -14.4883
O 5.54461 -17.0604 -17.6329
O 3.57877 -16.1958 -16.8308
Na 4.12518 -1.78117 -25.4378
H 7.29483 -16.8778 -15.3672
H 6.62177 -17.0465 -13.7531
H 4.5138 -16.6803 -14.5066
H 5.01713 -18.1723 -15.2145
C 28.6705 14.0922 -16.322
C 27.8639 15.2683 -16.9107
C 28.7858 16.4208 -17.2704
S 27.535 13.1057 -15.2506
O 30.0401 16.3165 -17.0575
O 28.2416 17.4227 -17.7932
Na 25.4038 -11.9995 -22.2576
H 29.5395 14.418 -15.827
H 28.8471 13.5222 -17.1731
H 27.1066 15.4135 -16.1628
H 27.3835 14.7884 -17.746
C -6.62028 6.90407 -5.99234
C -7.56046 8.11317 -6.2859
C -7.75233 8.53389 -7.77385
S -4.91086 7.38795 -5.91343
O -8.1696 7.61773 -8.59224
O -7.50248 9.70873 -8.08138
Na -381.568 481.627 -164.167
H -6.71095 6.03327 -6.7004
H -6.97552 6.55933 -5.02513
H -7.1595 9.05996 -5.83708
H -8.60985 8.09271 -5.82679
C 24.1714 -14.0721 -18.1854
C 25.2908 -15.1679 -18.1634
C 25.6854 -15.8702 -19.4564
S 23.8196 -13.3866 -16.5166
O 25.8546 -15.1571 -20.4871
O 25.7341 -17.1264 -19.3763
Na 13.7926 292.088 426.727
H 24.3007 -13.2157 -18.8348
H 23.3139 -14.503 -18.6715
H 25.1091 -15.8906 -17.2991
H 26.2021 -14.735 -17.8049
C 16.0848 23.8172 -10.5123
C 14.8769 24.1716 -11.3834
C 15.2352 25.0422 -12.6578
S 16.3182 22.0739 -10.3233
O 15.385 26.263 -12.4625
O 15.2327 24.5054 -13.7826
Na 31.4148 23.7259 -1.4723
H 15.8426 24.3405 -9.50777
H 16.9744 24.2346 -10.9108
H 14.0359 24.6532 -10.9159
H 14.395 23.1907 -11.5578
C 0.0512401 -13.2829 -9.18127
C -0.326426 -14.713 -8.84815
C -1.24277 -15.3861 -9.87747
S 1.59715 -12.8247 -8.19778
O -2.29816 -14.8486 -10.2203
O -0.78453 -16.4243 -10.3651
Na 9.96359 37.6936 258.065
H -0.882903 -12.6347 -9.10507
H 0.276809 -13.1774 -10.2577
H -0.75641 -14.6602 -7.81725
H 0.632477 -15.2546 -8.92754
C 30.6209 2.44937 -19.6525
C 31.7815 1.8435 -20.4288
C 32.4518 2.88387 -21.2825
S 29.8105 1.19943 -18.6235
O 32.8221 2.61067 -22.4512
O 32.7786 3.97117 -20.6796
Na -0.0755274 19.5888 -13.2843
H 30.9579 3.34534 -18.9833
H 29.7926 2.9098 -20.2399
H 31.4703 1.07828 -21.1346
H 32.4703 1.32615 -19.8076
C -3.8642 15.6065 -2.49879
C -4.97901 15.0378 -1.72625
C -5.75005 16.0398 -0.951055
S -2.56139 14.3669 -2.9095
O -6.20782 17.0125 -1.47829
O -5.87264 15.8298 0.280124
Na 41.9424 12.5519 -5.31442
H -3.4387 16.4327 -1.92719
H -4.17637 15.9757 -3.48335
H -4.69117 14.256 -1.05147
H -5.61889 14.6492 -2.51459
C 11.0674 -18.3151 -16.0651
C 10.0008 -19.3863 -15.863
C 8.63174 -19.232 -16.5443
S 10.7797 -16.8828 -15.033
O 7.96842 -20.3011 -16.6304
O 8.33583 -18.1688 -17.0926
Na -167.117 219.28 177.29
H 11.1684 -18.1457 -17.1246
H 12.0563 -18.7857 -15.8963
H 9.72876 -19.7219 -14.8768
H 10.4408 -20.2498 -16.3138
C 25.9809 17.5604 -14.232
C 25.2206 18.2171 -15.4054
C 25.8443 19.591 -15.9175
S 25.1394 16.3396 -13.1674
O 27.0933 19.7166 -15.8022
O 25.0786 20.3567 -16.5462
Na 253.327 -230.035 -206.693
H 26.2866 18.3928 -13.486
H 26.923 17.1624 -14.6059
H 24.2458 18.4867 -15.179
H 25.1863 17.6357 -16.2956
C -8.18428 0.690229 -7.56487
C -9.38918 0.863311 -6.68627
C -9.53845 -0.306861 -5.71901
S -6.5752 0.797083 -6.79918
O -9.09711 -0.103446 -4.55091
O -9.81692 -1.42302 -6.19214
Na 303.897 -115.674 -491.019
H -8.26116 1.42454 -8.42672
H -8.13691 -0.340123 -8.07007
H -10.3084 0.931833 -7.27914
H -9.37501 1.84731 -6.16602
C 28.1966 -10.4243 -18.6308
C 27.6472 -11.6877 -19.3329
C 28.3382 -12.171 -20.6097
S 27.234 -9.81047 -17.1932
O 27.8396 -13.121 -21.2622
O 29.2873 -11.4959 -20.9897
Na -479.099 -356.662 392.278
H 28.1264 -9.65557 -19.4789
H 29.2458 -10.4964 -18.2748
H 26.5711 -11.4913 -19.3897
H 27.7414 -12.4756 -18.6069
C 13.2434 25.0688 -5.85811
C 12.8758 26.0769 -6.98274
C 11.3073 26.0929 -7.19476
S 13.4813 23.3125 -6.34231
O 10.6509 25.0547 -7.10506
O 10.8937 27.2332 -7.51084
Na 27.3577 -21.6507 -4.17114
H 12.4337 24.9349 -5.1108
H 14.0199 25.3862 -5.25956
H 13.4326 25.8908 -7.87483
H 13.2659 27.1261 -6.77147
C 2.25606 -13.2433 -14.0663
C 2.00994 -14.7839 -14.3477
C 1.33267 -15.5084 -13.1702
S 3.79038 -12.7043 -13.3249
O 0.458671 -14.8086 -12.6541
O 1.4451 -16.7505 -13.0417
Na -6.03464 4.04452 -19.8816
H 1.39025 -12.8029 -13.4591
H 2.25693 -12.6962 -15.018
H 2.96853 -15.2209 -14.6259
H 1.41978 -14.8942 -15.2349
C 32.3242 12.4802 -16.0795
C 33.7467 11.9514 -16.6376
C 34.2563 12.6709 -17.8097
S 31.7258 11.2642 -14.8461
O 35.4704 12.4762 -18.0078
O 33.544 13.5666 -18.2879
Na -154.889 119.847 76.0732
H 31.5615 12.7864 -16.8284
H 32.3986 13.4826 -15.5791
H 33.6587 10.9058 -16.9792
H 34.5193 11.966 -15.8575
C -5.11119 10.938 -3.74185
C -6.13608 11.8611 -2.98271
C -7.57721 11.2688 -2.96028
S -4.18535 9.95688 -2.56325
O -8.50822 12.0845 -3.24767
O -7.70622 10.0391 -2.77966
Na 125.365 -255.046 -496.398
H -4.4166 11.4547 -4.32814
H -5.51291 10.235 -4.47173
H -5.98631 12.7756 -3.5554
H -5.88426 12.0905 -1.95368
C 18.8193 -17.5904 -16.6067
C 18.6991 -18.3732 -17.9385
C 19.2443 -17.7097 -19.1639
S 17.6118 -16.2031 -16.6432
O 20.1292 -16.8708 -18.9929
O 18.8502 -18.1518 -20.2472
Na 268.289 -74.463 -64.6849
H 19.8689 -17.1882 -16.5081
H 18.6978 -18.3078 -15.8013
H 17.6866 -18.6607 -18.0698
H 19.2202 -19.3325 -17.7921
C 24.3448 22.3578 -9.59489
C 25.3567 23.3093 -8.98691
C 25.4056 24.7517 -9.42546
S 23.7726 20.8526 -8.64226
O 26.1753 25.5243 -8.80138
O 24.7629 24.9875 -10.4167
Na 32.704 -20.7362 2.76057
H 24.8113 22.0843 -10.5337
H 23.4458 22.8629 -9.88196
H 26.3293 22.8479 -9.19255
H 25.3712 23.2283 -7.88337
C -5.90384 -4.43255 -4.73648
C -7.21063 -4.68945 -5.50229
C -7.35836 -6.10718 -6.12799
S -4.44911 -3.93169 -5.58635
O -6.95299 -7.07118 -5.41004
O -7.95904 -6.18815 -7.20582
Na 3.04121 25.1021 -9.34799
H -5.7756 -5.35203 -4.14564
H -6.11245 -3.59575 -4.12448
H -7.33632 -4.03955 -6.43197
H -8.16027 -4.54468 -4.96217
C 29.0708 -3.94968 -21.7239
C 30.4761 -4.61595 -21.8013
C 30.8329 -5.24607 -23.1423
S 28.832 -3.39782 -20.0118
O 30.6819 -4.48413 -24.0969
O 31.3723 -6.34633 -23.1797
Na 94.8738 73.7811 45.3657
H 28.366 -4.63145 -22.195
H 29.0235 -3.04826 -22.3099
H 30.6818 -5.33683 -21.0611
H 31.1423 -3.76701 -21.6922
C 3.65353 21.0669 -3.16309
C 2.30342 20.7091 -3.82454
C 1.44697 21.9041 -3.92515
S 4.68732 19.5841 -2.76683
O 2.09134 22.9593 -3.93702
O 0.218687 21.7691 -3.71449
Na 400.735 492.246 136.93
H 3.52574 21.57 -2.20104
H 4.26749 21.7081 -3.80522
H 1.81679 19.9674 -3.12889
H 2.40961 20.2022 -4.75524
C 5.30271 -17.9377 -11.2781
C 3.98197 -18.3278 -11.8854
C 4.16028 -19.6463 -12.691
S 5.16446 -16.2308 -10.5592
O 5.29721 -19.9767 -13.017
O 3.10308 -20.2999 -12.8534
Na 107.529 -310.076 289.467
H 6.17607 -17.9821 -11.9734
H 5.53619 -18.6284 -10.3927
H 3.76324 -17.5876 -12.5894
H 3.11589 -18.4174 -11.2207
C 29.7251 16.9674 -12.942
C 30.9418 17.8612 -12.5793
C 31.4015 18.7248 -13.7437
S 29.2384 15.7669 -11.6766
O 32.5433 19.3579 -13.5987
O 30.5525 18.9433 -14.6141
Na 278.437 -308.913 412.544
H 29.8837 16.3803 -13.8113
H 28.7539 17.5145 -13.107
H 31.852 17.4243 -12.3213
H 30.6027 18.5254 -11.7757
C -7.88478 6.46065 -1.88513
C -8.62685 7.44818 -1.00657
C -8.8684 6.94726 0.502623
S -6.08773 6.59854 -1.68726
O -8.46642 5.80925 0.840272
O -9.55303 7.73312 1.15221
Na 177.198 24.3502 84.4631
H -8.03726 6.70929 -2.95712
H -8.14173 5.47641 -1.66505
H -9.5845 7.60429 -1.50232
H -8.12483 8.41361 -1.08339
C 29.0529 -15.3406 -14.5775
C 29.8645 -15.6966 -15.911
C 28.8184 -15.9133 -17.0056
S 28.2976 -13.6866 -14.6279
O 28.834 -15.1316 -17.9775
O 28.0154 -16.8899 -16.9492
Na 213.914 149.91 390.358
H 29.7463 -15.313 -13.6936
H 28.372 -16.2499 -14.4399
H 30.5361 -16.5466 -15.8442
H 30.5835 -14.9034 -16.1351
C 16.7856 24.5522 -4.44825
C 17.4987 25.6193 -5.34129