37343
Atoms. Timestep: 79200000
C 1.77835 -11.8979 40.9491
C 2.36897 -11.105 39.7725
C 3.65527 -10.3287 40.1072
C 4.17015 -9.63389 38.8334
C 5.41944 -8.84812 38.9135
C 6.01208 -8.34241 37.5508
C 7.32698 -7.59976 37.7096
C 7.96632 -7.30098 36.369
C 9.37722 -6.70726 36.6026
C 9.83277 -5.89369 35.4187
C 11.2377 -5.25116 35.6209
C 11.6849 -4.38762 34.3764
C 11.9775 -5.17518 33.0664
C 12.5213 -4.33543 31.9237
C 14.0873 -4.21095 31.9856
C 14.6566 -3.10112 31.0724
N 16.1677 -2.94371 31.0387
C 16.8359 -4.21686 30.8854
C 16.6516 -2.12261 29.885
C 16.6532 -2.27217 32.3055
Br 7.68514 3.97781 18.1749
H 0.90417 -12.4849 40.6501
H 2.55032 -12.5442 41.2643
H 2.61736 -11.7812 39.03
H 1.62139 -10.5159 39.3522
H 3.35458 -9.64931 40.927
H 4.38845 -10.925 40.5366
H 4.31804 -10.3721 38.0195
H 3.32805 -8.89218 38.6241
H 5.41019 -8.15132 39.7605
H 6.132 -9.54593 39.2957
H 6.21017 -9.1083 36.7246
H 5.33315 -7.65837 37.0752
H 7.02937 -6.70198 38.28
H 7.93487 -8.29503 38.326
H 7.32659 -6.59321 35.7762
H 8.06806 -8.11592 35.6397
H 10.0288 -7.62543 36.6624
H 9.46187 -6.31639 37.5787
H 9.75356 -6.53454 34.5733
H 9.1411 -5.1012 35.3414
H 11.9391 -6.07786 35.7057
H 11.2916 -4.52205 36.4027
H 12.5351 -3.79789 34.6793
H 10.8967 -3.68219 34.1457
H 11.0663 -5.5663 32.7384
H 12.6779 -5.99559 33.2588
H 12.2129 -3.23835 31.9876
H 12.1568 -4.83248 31.0186
H 14.5223 -5.14978 31.5581
H 14.5083 -4.13029 32.9989
H 14.2903 -2.14239 31.1509
H 14.5148 -3.46282 30.0585
H 16.7163 -4.76851 31.826
H 17.8992 -4.19006 30.7056
H 16.5583 -4.80251 29.9909
H 16.2746 -2.55723 28.9774
H 17.7563 -2.05432 29.8947
H 16.1727 -1.18255 29.8765
H 17.7008 -2.09302 32.234
H 16.5196 -2.95387 33.1359
H 16.2541 -1.30179 32.4069
H 1.54939 -11.2496 41.87
C -8.99902 12.5838 24.4851
C -8.65417 13.6231 25.5057
C -9.69712 14.6965 25.5447
C -9.43277 15.859 26.5605
C -10.6352 16.8023 26.8224
C -10.2629 17.8819 27.8853
C -11.2084 19.0469 27.9026
C -11.0002 19.9328 29.1788
C -12.1876 20.9618 29.2814
C -12.0514 22.06 30.3083
C -13.3103 22.9485 30.4778
C -13.2664 23.8098 31.6996
C -13.9844 25.2097 31.6883
C -13.7844 26.2232 32.8709
C -14.7528 27.3938 32.8636
C -14.5565 28.2604 34.1365
N -15.5611 29.4224 34.2746
C -15.6135 30.1157 32.9677
C -15.0952 30.3396 35.3615
C -16.8745 28.8341 34.6067
Br -51.8034 -16.2291 6.08578
H -9.94789 12.0395 24.6595
H -8.95708 13.1239 23.5827
H -7.62805 14.0188 25.3324
H -8.6224 13.169 26.5611
H -10.5824 14.2702 25.921
H -9.90201 15.0505 24.5461
H -9.30191 15.4039 27.531
H -8.5118 16.4274 26.3551
H -10.9749 17.2991 25.9217
H -11.5267 16.264 27.1398
H -10.3318 17.2572 28.8168
H -9.26758 18.2884 27.6678
H -10.9955 19.606 26.9992
H -12.2357 18.7376 27.8619
H -10.0627 20.4402 29.1272
H -11.0969 19.3579 30.114
H -13.0887 20.3247 29.4905
H -12.2342 21.3955 28.2974
H -11.7957 21.7436 31.287
H -11.1399 22.7135 29.8959
H -14.1164 22.251 30.5789
H -13.6138 23.5857 29.6484
H -13.604 23.1921 32.5701
H -12.2016 24.0938 31.8534
H -15.0679 24.961 31.5949
H -13.8296 25.8335 30.7275
H -13.7934 25.7276 33.8446
H -12.8006 26.5921 32.7011
H -15.7393 27.0571 32.7397
H -14.5359 27.9953 32.0138
H -14.5376 27.6609 35.0617
H -13.5442 28.724 34.0274
H -16.1609 29.5798 32.2528
H -16.2387 30.9679 33.2362
H -14.6576 30.3836 32.4831
H -15.8665 31.0236 35.6026
H -14.7834 29.7579 36.2172
H -14.165 30.8153 34.954
H -16.6893 28.1125 35.4102
H -17.5129 29.6413 34.9248
H -17.2493 28.28 33.7533
H -8.19595 11.7308 24.4325
C 3.70386 5.85766 30.6759
C 3.51827 7.33513 30.3429
C 2.68967 8.15114 31.441
C 2.73071 9.64761 31.1255
C 2.13108 10.475 32.283
C 2.04268 11.9911 31.9757
C 1.26403 12.8008 33.0218
C 1.50112 14.3022 32.836
C 1.17484 15.1485 34.1423
C 1.38783 16.6342 33.9804
C 1.28122 17.5786 35.2098
C 1.69256 19.0052 35.015
C 3.10441 19.3943 35.3801
C 3.53695 20.793 35.0676
C 5.03614 20.9888 35.1651
C 5.56112 22.3805 34.8825
N 7.0105 22.5373 35.0318
C 7.50229 22.0683 36.3289
C 7.64438 21.6806 33.9051
C 7.23381 23.9738 34.868
Br -20.9697 0.259471 13.492
H 4.2478 5.85946 31.5989
H 2.73311 5.3356 30.7477
H 4.53631 7.72435 30.1597
H 2.94845 7.544 29.4206
H 1.62931 7.76816 31.617
H 3.17691 7.92297 32.3859
H 3.7367 9.9845 30.9952
H 2.14285 9.91483 30.1803
H 1.18115 10.0472 32.6362
H 2.66204 10.3069 33.1666
H 3.03993 12.4103 32.0049
H 1.62932 12.2014 31.0109
H 0.234201 12.5991 32.9669
H 1.6531 12.5628 34.0533
H 2.48672 14.6061 32.5556
H 0.886562 14.6969 32.0106
H 0.212806 14.8935 34.6133
H 1.86796 14.883 34.9298
H 2.37951 16.8008 33.4826
H 0.726682 17.0497 33.2496
H 0.225529 17.6682 35.564
H 1.83534 17.1241 36.0213
H 1.3553 19.3022 33.9844
H 1.04957 19.5479 35.6935
H 3.7521 18.7491 34.7906
H 3.30685 19.2037 36.4841
H 2.96597 21.523 35.6954
H 3.23299 20.9087 34.0158
H 5.35061 20.7054 36.2139
H 5.60554 20.2478 34.5741
H 5.19253 22.6737 33.8499
H 5.19785 23.093 35.633
H 8.58702 22.3803 36.4758
H 6.85768 22.3657 37.1049
H 7.54179 20.9902 36.2494
H 7.21085 21.9064 32.9842
H 7.55527 20.6304 34.0935
H 8.65201 22.0952 33.8183
H 6.59911 24.2862 34.0305
H 6.76906 24.481 35.7565
H 8.30099 24.2319 34.7479
H 4.27235 5.31776 29.9258
C -13.1293 4.95167 25.8449
C -14.366 4.80189 26.6464
C -15.347 3.72951 26.0552
C -16.6455 3.74952 26.889
C -17.6911 2.64416 26.5049
C -18.5395 2.32643 27.7366
C -19.4776 1.09023 27.6047
C -20.5471 1.11954 28.7339
C -21.2777 -0.185755 28.7187
C -22.4637 -0.0818957 29.6316
C -23.3409 -1.33009 29.6031
C -24.5491 -1.11558 30.4569
C -25.4532 -2.32856 30.5974
C -26.8185 -2.03478 31.3116
C -27.6954 -3.20284 31.6344
C -29.0984 -2.88561 32.2831
N -29.791 -4.05139 32.9868
C -29.8561 -5.22593 32.0333
C -31.1449 -3.5748 33.4522
C -29.0307 -4.52757 34.2389
Br -17.2912 173.542 175.624
H -12.9914 4.04106 25.2674
H -12.2834 5.0526 26.5145
H -14.144 4.37061 27.6194
H -14.7908 5.78431 26.8643
H -15.6071 4.02283 25.0004
H -14.7187 2.81654 25.8855
H -16.2845 3.72961 27.9264
H -17.1034 4.77062 26.6538
H -18.2601 2.93111 25.6272
H -17.1186 1.68413 26.2656
H -17.9047 2.06823 28.5898
H -19.1362 3.20407 27.97
H -20.0162 1.04378 26.6811
H -18.9816 0.12304 27.7337
H -20.0456 1.33799 29.7948
H -21.2304 1.92865 28.7575
H -21.7119 -0.43871 27.747
H -20.5663 -0.939786 29.1348
H -22.2768 0.239725 30.6963
H -23.1015 0.706123 29.3111
H -22.7518 -2.13562 30.0077
H -23.5835 -1.56193 28.589
H -24.1713 -0.877947 31.4553
H -25.1268 -0.228246 30.2539
H -24.8502 -3.01419 31.2078
H -25.487 -2.80895 29.5785
H -26.6399 -1.49833 32.2259
H -27.309 -1.30099 30.7208
H -27.077 -3.89867 32.1171
H -27.9033 -3.60716 30.6993
H -29.0279 -2.06329 32.9623
H -29.6418 -2.52037 31.4195
H -30.5645 -5.96567 32.3406
H -30.068 -4.89684 31.0355
H -28.8948 -5.64482 31.8679
H -31.5621 -2.99697 32.6334
H -31.7362 -4.47214 33.6418
H -31.0371 -2.8984 34.3527
H -28.0948 -4.95001 33.92
H -28.8135 -3.80549 34.9331
H -29.6726 -5.28055 34.6971
H -13.0754 5.75409 25.1249
C -2.30721 2.25466 36.5846
C -3.42023 2.12056 37.5452
C -4.74336 1.64705 37.0336
C -5.61023 1.2711 38.1568
C -6.97806 0.833267 37.6701
C -7.94883 0.576775 38.8549
C -9.32734 0.218935 38.3609
C -10.3408 0.303587 39.558
C -11.7239 -0.156742 39.1918
C -12.749 -0.538904 40.2996
C -14.1437 -0.465386 39.7453
C -15.2207 -0.625448 40.8443
C -16.6293 -0.254963 40.3583
C -17.6205 -0.318802 41.5786
C -19.0998 -0.437619 41.121
C -20.1418 -0.633968 42.2644
N -21.5204 -0.943813 41.8395
C -22.4616 -1.16451 42.9977
C -22.1429 0.214148 41.0305
C -21.5662 -2.15582 40.94
Br -15.9401 -20.2338 10.1333
H -1.40128 2.69673 36.9884
H -2.02223 1.27238 36.2641
H -3.07524 1.4765 38.2987
H -3.70232 3.03098 38.1397
H -5.29437 2.26948 36.3119
H -4.62078 0.669497 36.5546
H -5.07594 0.577889 38.7831
H -5.86335 2.1065 38.7725
H -7.30451 1.79679 37.1818
H -6.94337 -0.0525175 36.9801
H -7.62888 -0.269458 39.4521
H -7.9458 1.48218 39.4189
H -9.55405 1.02199 37.6106
H -9.35083 -0.714031 37.8808
H -10.0074 -0.283533 40.4086
H -10.3055 1.36609 39.9101
H -12.1168 0.620193 38.539
H -11.6294 -0.989917 38.528
H -12.5299 -1.41588 40.8278
H -12.7634 0.14883 41.155
H -14.2782 0.422821 39.1424
H -14.3153 -1.0795 38.8744
H -15.1735 -1.59353 41.26
H -15.008 0.0208211 41.6953
H -16.6345 0.7294 39.9386
H -16.9946 -0.979642 39.6193
H -17.4565 0.517178 42.2139
H -17.4324 -1.28305 42.0997
H -19.3467 0.400189 40.4245
H -19.0761 -1.315 40.4838
H -19.7918 -1.42485 42.8451
H -20.1125 0.347098 42.7981
H -22.3959 -0.217451 43.6639
H -22.2231 -2.02938 43.5703
H -23.5762 -1.28221 42.6995
H -23.1372 -0.0357264 40.6111
H -21.511 0.34883 40.159
H -22.2246 1.15854 41.6581
H -20.9477 -2.93311 41.3203
H -22.5772 -2.49708 40.8271
H -21.1157 -1.93425 39.9647
H -2.71756 2.88778 35.799
C -18.718 0.718289 36.9348
C -17.6913 1.82579 36.9256
C -16.2543 1.2397 36.6824
C -15.0545 2.25253 36.3543
C -13.915 1.53473 35.7189
C -12.7178 2.50036 35.6243
C -11.4342 1.8714 34.9808
C -10.2255 2.71407 35.0274
C -8.8886 2.00705 34.498
C -7.57079 2.91404 34.5985
C -7.6323 4.16707 33.6528
C -6.55514 5.26251 33.7406
C -5.18107 4.80034 33.242
C -4.16025 5.71969 33.9449
C -2.68226 5.40318 33.5914
C -1.65404 6.3879 34.2807
N -0.216933 6.0911 34.0657
C 0.137048 5.90177 32.6199
C 0.214729 4.98236 34.9133
C 0.514803 7.27558 34.521
Br -74.6594 51.3831 -235.469
H -19.77 0.915988 36.8845
H -18.6043 0.0327565 36.1341
H -17.863 2.42733 36.1236
H -17.7096 2.4486 37.8579
H -15.8455 0.690121 37.5482
H -16.2602 0.479792 35.8246
H -15.4511 3.06964 35.651
H -14.7476 2.76313 37.2007
H -13.6468 0.816891 36.5244
H -14.1097 1.16664 34.7565
H -12.8802 3.42476 35.0863
H -12.3977 2.71415 36.5591
H -11.1364 0.903587 35.4767
H -11.7538 1.46062 34.054
H -10.4352 3.65126 34.5263
H -10.0795 3.01892 36.0287
H -8.63914 1.18368 35.1038
H -9.10517 1.82659 33.4856
H -7.51047 3.32562 35.6051
H -6.64906 2.41039 34.3744
H -7.65191 3.74814 32.638
H -8.63016 4.67169 33.789
H -6.79894 6.10481 33.1684
H -6.44966 5.62494 34.7504
H -5.11677 3.76205 33.509
H -5.23714 4.68324 32.2035
H -4.37265 6.76155 33.6864
H -4.36464 5.71937 35.0534
H -2.4167 4.38485 33.8946
H -2.57932 5.52478 32.5108
H -2.04373 7.38212 33.9117
H -1.76504 6.37072 35.3547
H 1.19635 5.62796 32.4817
H -0.475236 5.18322 32.1673
H -0.0395509 6.80964 32.0238
H -0.052936 5.14688 35.9995
H -0.115378 4.02643 34.5428
H 1.30715 4.87423 34.9701
H 1.60493 7.23156 34.3971
H 0.0544798 8.09019 34.0147
H 0.333846 7.38696 35.5979
H -18.5262 0.00349311 37.743
C -15.312 -15.7828 -40.1228
C -15.5546 -16.558 -38.807
C -14.8348 -16.1115 -37.6118
C -13.3387 -16.4596 -37.6331
C -12.5184 -15.9467 -36.4511
C -11.1396 -16.4636 -36.4433
C -10.3356 -15.7464 -35.2902
C -9.02278 -16.4841 -34.8247
C -7.98853 -15.5316 -34.116
C -6.78296 -16.3123 -33.502
C -5.95377 -15.4196 -32.5563
C -4.55841 -16.01 -32.3564
C -3.76997 -15.3722 -31.2522
C -2.30654 -15.763 -31.2288
C -1.55011 -15.425 -29.9146
C -0.00350689 -15.7865 -29.6902
N 0.670814 -15.3508 -28.406
C 0.28716 -16.2595 -27.3249
C 0.370359 -13.8698 -28.0872
C 2.10652 -15.441 -28.659
Br 3.45095 -11.5885 -26.2843
H -16.2558 -16.135 -40.6025
H -14.5249 -16.0937 -40.7192
H -15.4939 -17.6299 -38.8847
H -16.5937 -16.4656 -38.5413
H -15.3858 -16.3782 -36.684
H -14.8693 -15.0033 -37.5883
H -12.8152 -16.21 -38.5689
H -13.2676 -17.5314 -37.5868
H -13.0442 -16.0899 -35.4531
H -12.4258 -14.878 -36.4907
H -10.726 -16.1963 -37.3917
H -11.1041 -17.4875 -36.3275
H -10.9827 -15.6519 -34.4432
H -10.0811 -14.7039 -35.6479
H -8.63505 -16.972 -35.6955
H -9.27924 -17.212 -34.0844
H -8.4473 -15.04 -33.3036
H -7.70202 -14.7238 -34.795
H -6.13091 -16.7142 -34.2629
H -7.1578 -17.2499 -33.0576
H -6.39759 -15.4303 -31.6089
H -5.90952 -14.4108 -32.8564
H -3.95867 -15.8204 -33.2155
H -4.71302 -17.087 -32.2121
H -4.16681 -15.9004 -30.3535
H -3.84578 -14.3327 -31.0676
H -1.7748 -15.2443 -32.021
H -2.15863 -16.8374 -31.4589
H -2.09116 -15.9428 -29.0805
H -1.74773 -14.3174 -29.7492
H 0.0333026 -16.8203 -29.7443
H 0.56198 -15.5012 -30.5379
H 0.430331 -17.2729 -27.6308
H -0.736903 -16.029 -27.0842
H 0.912797 -16.197 -26.4233
H 1.02175 -13.5456 -27.3417
H -0.674056 -13.7465 -27.7444
H 0.624419 -13.243 -28.9441
H 2.40094 -14.7366 -29.4872
H 2.5016 -16.414 -28.8602
H 2.65345 -15.1798 -27.8442
H -15.2183 -14.6987 -40.0595
C 2.67611 7.06032 -46.7492
C 3.55701 6.30055 -45.6749
C 2.86433 5.1812 -44.9388
C 3.84909 4.15837 -44.3763
C 3.46652 3.44365 -43.0324
C 4.46789 2.34831 -42.5061
C 3.97224 1.61942 -41.2179
C 4.95591 0.708907 -40.5176
C 4.32655 0.0874464 -39.1676
C 5.22529 -0.990299 -38.577
C 4.76287 -1.58097 -37.2764
C 5.5467 -2.83523 -36.8017
C 4.96701 -3.52348 -35.5177
C 5.97346 -4.66497 -35.1572
C 5.75471 -5.30108 -33.8111
C 6.10061 -4.42742 -32.5963
N 5.4932 -4.89642 -31.3234
C 6.07828 -4.09339 -30.2211
C 3.98661 -4.69562 -31.2998
C 5.79189 -6.34621 -31.0525
Br -30.743 -21.5688 38.4458
H 1.74441 7.22406 -46.2967
H 2.47878 6.44295 -47.632
H 4.11022 6.95174 -44.9622
H 4.40518 5.83496 -46.2255
H 2.15517 4.6658 -45.5714
H 2.2736 5.60193 -44.1903
H 4.78502 4.68629 -44.2775
H 4.0543 3.49139 -45.1759
H 2.49187 2.94536 -43.0913
H 3.36737 4.1778 -42.2976
H 5.4117 2.7598 -42.2835
H 4.77823 1.67455 -43.2943
H 3.04835 1.06386 -41.4138
H 3.65784 2.43018 -40.5761
H 5.85382 1.30077 -40.2359
H 5.26206 -0.157713 -41.0806
H 3.35314 -0.29049 -39.291
H 4.18286 0.921475 -38.5279
H 6.12393 -0.555691 -38.3456
H 5.36863 -1.768 -39.3458
H 3.65865 -1.85118 -37.301
H 4.83787 -0.818788 -36.5199
H 6.5632 -2.53579 -36.5755
H 5.62331 -3.53557 -37.6577
H 4.01549 -3.93308 -35.7795
H 4.87019 -2.78931 -34.7085
H 6.99473 -4.30781 -35.103
H 5.9591 -5.40574 -35.9098
H 6.30086 -6.2246 -33.8344
H 4.70731 -5.66469 -33.779
H 5.78541 -3.38023 -32.6815
H 7.24089 -4.47748 -32.5351
H 7.02176 -4.42504 -29.7224
H 5.47686 -4.19617 -29.3297
H 6.2561 -3.05042 -30.4115
H 3.54634 -4.946 -30.3577
H 3.38691 -5.26651 -32.0353
H 3.77715 -3.68644 -31.4402
H 5.30049 -6.95413 -31.73
H 5.4 -6.73083 -30.1548
H 6.86409 -6.56941 -31.1346
H 3.18101 7.99652 -47.0887
C -3.52283 -24.8201 -39.9402
C -3.3758 -23.291 -39.4268
C -2.52661 -22.4748 -40.418
C -2.62857 -20.9512 -40.2251
C -1.75289 -20.5289 -39.0082
C -1.89473 -19.0972 -38.545
C -0.694877 -18.5708 -37.7132
C -0.968493 -17.2308 -36.9668
C 0.112785 -16.8736 -35.9252
C -0.167382 -15.6594 -35.1539
C 0.994197 -15.1924 -34.2586
C 0.817327 -13.7948 -33.5838
C 2.07964 -13.4449 -32.8082
C 1.91501 -12.0009 -32.3009
C 3.11444 -11.5574 -31.4927
C 4.44872 -11.2851 -32.2121
N 5.65894 -11.2636 -31.3272
C 6.83671 -11.013 -32.2284
C 5.92669 -12.5416 -30.5822
C 5.5496 -10.1152 -30.3176
Br 5.48018 8.59071 -23.0178
H -3.59819 -25.6441 -39.2063
H -2.72629 -25.1323 -40.659
H -2.94611 -23.2745 -38.4095
H -4.39201 -22.9134 -39.377
H -2.67511 -22.7466 -41.4941
H -1.48422 -22.7676 -40.2407
H -3.72204 -20.7949 -39.9512
H -2.29833 -20.3393 -41.0177
H -0.699081 -20.6893 -39.263
H -1.92542 -21.1884 -38.0854
H -2.81546 -19.1214 -37.9821
H -2.03726 -18.4402 -39.3873
H 0.126005 -18.5012 -38.3978
H -0.415141 -19.3606 -37.0263
H -1.8888 -17.3865 -36.4292
H -1.04171 -16.4532 -37.7589
H 1.01517 -16.6911 -36.5246
H 0.397934 -17.7762 -35.3103
H -1.15107 -15.7117 -34.6216
H -0.286846 -14.9096 -35.8775
H 1.9081 -15.0711 -34.852
H 1.31648 -15.9918 -33.4997
H -0.125345 -13.84 -33.0464
H 0.719333 -13.0408 -34.3513
H 3.0558 -13.574 -33.2083
H 2.07942 -14.0224 -31.9453
H 1.80984 -11.4425 -33.2028
H 0.932634 -11.7904 -31.7816
H 2.78662 -10.7324 -30.8668
H 3.31245 -12.3044 -30.7899
H 4.54769 -11.9888 -33.042
H 4.29827 -10.3347 -32.6769
H 6.77403 -10.0113 -32.6796
H 6.88224 -11.7546 -33.0267
H 7.76103 -11.0874 -31.636
H 5.27 -12.5565 -29.6811
H 5.70734 -13.3312 -31.2746
H 6.98154 -12.6005 -30.2619
H 4.83833 -10.304 -29.4866
H 6.48812 -9.88906 -29.9902
H 5.18858 -9.23269 -30.8964
H -4.44652 -24.8829 -40.5443
C 9.78628 -30.724 -35.3177
C 9.03339 -31.6001 -34.3144
C 9.65816 -31.9239 -32.9748
C 8.98169 -33.0999 -32.207
C 9.67898 -33.4195 -30.9174
C 8.89244 -34.5644 -30.2238
C 9.74943 -35.2103 -29.0415
C 8.83726 -35.9919 -27.9852
C 9.59869 -36.432 -26.7399
C 8.877 -37.6067 -26.0434
C 9.20866 -37.8106 -24.5953
C 8.53881 -39.0392 -23.8972
C 9.03268 -39.4618 -22.5004
C 8.38358 -40.7766 -21.9703
C 9.09395 -41.3484 -20.6952
C 8.57843 -42.7654 -20.2598
N 9.28765 -43.2674 -19.0544
C 8.50866 -44.473 -18.6186
C 10.725 -43.5642 -19.1944
C 9.07626 -42.302 -17.9082
Br 84.2048 46.5657 -176.966
H 9.23309 -30.4489 -36.2583
H 10.6903 -31.2111 -35.7211
H 8.96347 -32.5469 -34.8254
H 8.02456 -31.1577 -34.2662
H 9.71236 -31.0409 -32.3431
H 10.6917 -32.0578 -33.3321
H 9.01585 -33.9934 -32.8867
H 7.94225 -32.8 -32.017
H 9.84094 -32.4939 -30.2868
H 10.7538 -33.8006 -31.1113
H 8.45052 -35.2529 -31.0007
H 7.99339 -34.074 -29.8207
H 10.1752 -34.4426 -28.422
H 10.4482 -35.9007 -29.4341
H 8.31268 -36.8026 -28.4606
H 8.02788 -35.3515 -27.6744
H 9.74637 -35.5219 -26.2089
H 10.5729 -36.7699 -27.0754
H 9.34726 -38.4555 -26.5806
H 7.81393 -37.4991 -26.1535
H 8.88117 -36.8561 -24.106
H 10.2661 -37.8265 -24.4622
H 8.60915 -40.0054 -24.4681
H 7.4487 -38.8674 -23.7223
H 8.8178 -38.6261 -21.8773
H 10.0774 -39.7911 -22.542
H 8.49117 -41.5919 -22.7263
H 7.29692 -40.6679 -21.73
H 8.74197 -40.6391 -19.9369
H 10.1765 -41.2413 -20.8383
H 8.64299 -43.5079 -21.0828
H 7.52485 -42.6604 -20.1776
H 9.05906 -44.7694 -17.7045
H 8.48273 -45.2807 -19.3137
H 7.44654 -44.1251 -18.4785
H 10.8138 -44.1347 -20.0923
H 11.2957 -44.0401 -18.3115
H 11.2752 -42.6214 -19.3214
H 8.03111 -42.2554 -17.598
H 9.45185 -41.2865 -17.9718
H 9.50755 -42.6853 -16.9833
H 10.1119 -29.82 -34.787
C -7.24581 -5.1018 -38.2103
C -7.04388 -3.53438 -38.4606
C -7.61851 -3.04676 -39.8413
C -7.88033 -1.51924 -39.8461
C -7.32651 -0.885593 -41.105
C -7.60301 0.657897 -41.2236
C -7.92915 1.17877 -42.6337
C -7.97951 2.7608 -42.6319
C -8.37864 3.3104 -44.0597
C -8.38365 4.86933 -44.1676
C -8.78784 5.35181 -45.4987
C -8.9741 6.87152 -45.5481
C -9.57989 7.28475 -46.9074
C -9.39179 8.79325 -47.1637
C -9.99747 9.18158 -48.5433
C -9.71189 10.6815 -48.8611
N -10.4497 11.3235 -49.9409
C -10.2423 10.5679 -51.2287
C -9.93984 12.7068 -50.1602
C -11.9312 11.3817 -49.7396
Br 1.15885 -2.40485 -28.1691
H -6.71355 -5.70565 -38.9804
H -8.32556 -5.38492 -38.4445
H -5.98005 -3.28071 -38.3476
H -7.48233 -2.86739 -37.7721
H -8.55126 -3.51019 -39.9899
H -7.04026 -3.53018 -40.661
H -7.3757 -1.05347 -39.0384
H -8.97039 -1.28968 -39.7896
H -7.86756 -1.26094 -42.0188
H -6.2771 -1.13467 -41.2878
H -6.74356 1.20593 -40.8858
H -8.44402 0.860352 -40.4724
H -8.91566 0.764921 -42.8636
H -7.26397 0.884727 -43.3993
H -6.93399 3.06977 -42.3142
H -8.68701 2.99523 -41.8337
H -9.30406 2.92085 -44.2546
H -7.6823 2.9229 -44.7304
H -7.41154 5.20719 -43.8781
H -9.12282 5.37596 -43.4198
H -9.82362 4.96884 -45.6803
H -8.22303 4.94433 -46.3179
H -7.98086 7.2738 -45.4407
H -9.59974 7.23306 -44.7486
H -10.5919 6.95768 -46.9689
H -9.07708 6.8655 -47.7693
H -8.28529 9.08548 -47.2618
H -9.84746 9.449 -46.4201
H -11.0875 9.05735 -48.6364
H -9.4941 8.55677 -49.3452
H -9.95697 11.3769 -48.0195
H -8.67745 10.7692 -49.104
H -10.735 9.61951 -51.3165
H -10.5233 11.0996 -52.1505
H -9.2376 10.3908 -51.3097
H -10.1308 13.3718 -49.3043
H -10.3876 13.0941 -51.0102
H -8.84995 12.6811 -50.2765
H -12.3431 12.0386 -48.9841
H -12.3801 11.9086 -50.5595
H -12.3394 10.3608 -49.6343
H -7.0073 -5.41448 -37.179
C -27.831 -15.3892 -39.0475
C -26.7995 -14.3402 -39.1562
C -26.1586 -13.9156 -37.813
C -25.1468 -12.7357 -37.9404
C -24.6302 -12.2299 -36.6617
C -23.5061 -11.1883 -36.8889
C -22.6437 -11.0556 -35.6378
C -21.5876 -9.97238 -35.8763
C -20.5782 -9.85791 -34.72
C -19.5573 -8.72642 -34.842
C -18.4382 -8.9834 -33.8964
C -17.3588 -7.89338 -34
C -16.2467 -8.03174 -32.9324
C -15.019 -7.30699 -33.4667
C -13.7489 -7.42908 -32.5455
C -12.4864 -6.73566 -33.0782
N -11.292 -6.58746 -32.1264
C -10.6813 -7.86265 -31.7279
C -10.3211 -5.81549 -32.9663
C -11.6689 -5.75373 -30.9642
Br -40.6566 22.4691 24.4302
H -28.6563 -15.0319 -38.4479
H -27.3767 -16.2641 -38.5839
H -27.2243 -13.4656 -39.623
H -26.053 -14.6875 -39.8935
H -25.7224 -14.7792 -37.2642
H -27.0013 -13.6044 -37.283
H -25.5801 -11.9292 -38.565
H -24.2627 -13.0963 -38.5118
H -24.3557 -13.1077 -36.0939
H -25.3832 -11.7806 -35.9015
H -23.8725 -10.1564 -37.1227
H -22.8095 -11.414 -37.712
H -22.1034 -11.965 -35.4345
H -23.2932 -10.833 -34.752
H -22.151 -9.04534 -35.9897
H -21.0162 -10.2208 -36.7845
H -19.9702 -10.7286 -34.6432
H -21.2066 -9.72282 -33.7941
H -19.9753 -7.71259 -34.7478
H -19.3322 -8.59296 -35.8421
H -17.9219 -9.89568 -34.1758
H -18.7545 -9.09029 -32.8437
H -17.6294 -6.87337 -33.8064
H -16.9339 -7.8201 -34.9806
H -15.9646 -9.07049 -32.853
H -16.5431 -7.67848 -31.9441
H -15.2413 -6.2633 -33.6508
H -14.7143 -7.82962 -34.4437
H -13.5124 -8.45866 -32.4874
H -14.0136 -7.10478 -31.6021
H -12.8338 -5.83019 -33.5812
H -12.1524 -7.39615 -33.9065
H -11.5192 -8.36442 -31.1292
H -9.89315 -7.83596 -30.9879
H -10.4244 -8.51255 -32.5511
H -10.8422 -4.96591 -33.3666
H -10.0419 -6.46602 -33.8376
H -9.41562 -5.62251 -32.4292
H -11.9378 -4.81889 -31.3741
H -10.8583 -5.55128 -30.2319
H -12.5487 -6.06843 -30.4254
H -28.2616 -15.7088 -39.9971
C -16.1212 -20.7712 -42.894
C -15.3405 -20.166 -41.7181
C -14.0127 -20.8326 -41.5142
C -13.3579 -20.0732 -40.3201
C -11.9888 -20.4852 -40.0109
C -11.3466 -19.689 -38.8787
C -10.0909 -20.3396 -38.3015
C -9.18864 -19.4378 -37.3596
C -7.91242 -20.158 -36.9438
C -6.96209 -19.2939 -36.1098
C -5.63199 -19.907 -35.7437
C -4.70028 -19.1099 -34.8397
C -3.47781 -19.9233 -34.5558
C -2.56114 -19.2687 -33.5749
C -1.25034 -19.92 -33.3992
C -0.232423 -19.1313 -32.4736
N 0.98666 -19.8553 -32.0843
C 2.04813 -19.7474 -33.1139
C 0.78071 -21.334 -31.7711
C 1.43856 -19.1792 -30.7273
Br -1.2398 -10.1607 -26.4656
H -16.1695 -21.8641 -42.709
H -15.6246 -20.6324 -43.8883
H -15.9017 -20.1517 -40.7733
H -15.1965 -19.1279 -42.008
H -13.3974 -20.7405 -42.3978
H -14.2391 -21.9059 -41.234
H -13.9161 -20.1736 -39.3554
H -13.3633 -19.019 -40.5145
H -11.3717 -20.5047 -40.8793
H -11.9892 -21.5686 -39.6991
H -12.0648 -19.5609 -38.026
H -11.1013 -18.7369 -39.3285
H -9.51304 -20.7759 -39.063
H -10.3214 -21.2902 -37.752
H -9.79329 -19.2359 -36.4375
H -8.99181 -18.4353 -37.763
H -7.3195 -20.4517 -37.7897
H -8.08988 -21.1075 -36.5253
H -7.39888 -18.9304 -35.1835
H -6.89703 -18.3739 -36.7386
H -5.08348 -20.1315 -36.7399
H -5.82684 -20.8755 -35.2945
H -5.17202 -18.9748 -33.8547
H -4.4469 -18.1146 -35.2618
H -2.96544 -20.1303 -35.5369
H -3.82748 -20.9579 -34.1687
H -2.90191 -19.1155 -32.5676
H -2.35827 -18.237 -33.8677
H -0.799331 -20.1727 -34.3465
H -1.48273 -20.9269 -32.9476
H -0.813294 -18.933 -31.545
H 0.179645 -18.2067 -32.8384
H 2.97405 -19.9941 -32.6783
H 1.8944 -20.2847 -34.0713
H 2.19113 -18.7084 -33.2551
H -0.0464774 -21.4907 -31.0775
H 1.67334 -21.8356 -31.459
H 0.594523 -21.8062 -32.6739
H 1.48687 -18.0366 -30.8616
H 0.752683 -19.3821 -29.876
H 2.38846 -19.6461 -30.3599
H -17.1717 -20.4078 -43.0229
C 0.693217 -22.4421 -28.1126
C 0.0646352 -23.8389 -27.7841
C -0.406343 -24.6934 -28.9868
C -1.747 -24.2584 -29.6094
C -1.95435 -24.7154 -31.0502
C -3.22394 -24.3311 -31.7171
C -3.35559 -24.7161 -33.201
C -4.78612 -24.5047 -33.7056
C -4.97197 -24.4468 -35.2987
C -6.43977 -24.5193 -35.6527
C -6.6948 -24.6034 -37.1522
C -8.13105 -24.7525 -37.4647
C -8.40587 -24.289 -38.9143
C -9.85341 -24.5412 -39.4513
C -9.81842 -24.3346 -41.016
C -11.1244 -24.4068 -41.743
N -11.1102 -23.9502 -43.1999
C -12.5503 -24.0619 -43.5737
C -10.6876 -22.5576 -43.4881
C -10.3057 -24.9279 -43.9433
Br -195.642 -126.493 167.213
H -0.0944783 -21.8578 -28.5508
H 1.49486 -22.42 -28.8236
H -0.741239 -23.8163 -27.1529
H 0.880071 -24.4124 -27.3434
H -0.460542 -25.755 -28.6898
H 0.345036 -24.6378 -29.8588
H -1.77418 -23.1686 -29.592
H -2.55713 -24.6472 -29.0199
H -1.90772 -25.7722 -31.1349
H -1.04308 -24.243 -31.5274
H -3.443 -23.3205 -31.5547
H -4.06229 -24.8336 -31.2345
H -3.1622 -25.7641 -33.2966
H -2.65822 -24.0919 -33.8235
H -5.07467 -23.5259 -33.4012
H -5.40142 -25.2634 -33.3299
H -4.44012 -25.363 -35.6304
H -4.43554 -23.5367 -35.7515
H -6.86835 -23.6403 -35.1689
H -6.95279 -25.4268 -35.1909
H -6.24351 -25.5211 -37.582
H -6.2943 -23.7333 -37.6823
H -8.84785 -24.2031 -36.8708
H -8.53961 -25.771 -37.1914
H -7.75378 -24.8913 -39.5543
H -8.11139 -23.2186 -39.0732
H -10.5509 -23.8713 -38.9905
H -10.1823 -25.578 -39.3584
H -9.06045 -25.0663 -41.4096
H -9.38628 -23.3942 -41.1868
H -11.8087 -23.7796 -41.2141
H -11.4619 -25.4767 -41.7242
H -12.9466 -25.0853 -43.4335
H -12.6879 -23.9427 -44.6797
H -13.1473 -23.3803 -43.0362
H -9.70346 -22.4376 -43.1468
H -11.4476 -21.7649 -43.0908
H -10.6843 -22.5418 -44.5912
H -9.21939 -24.8168 -43.7172
H -10.43 -24.7246 -44.9743
H -10.6327 -25.9344 -43.7309
H 1.16077 -21.9144 -27.2653
C -1.20275 2.54632 30.5338
C -2.084 1.32339 30.4987
C -3.36042 1.5336 31.3601
C -4.08489 0.232205 31.6106
C -5.28841 0.278049 32.6002
C -6.05295 -1.03214 32.6768
C -7.28652 -0.868553 33.5923
C -8.03426 -2.22086 33.8651
C -9.20171 -1.98349 34.8738
C -9.97047 -3.27339 35.2137
C -11.0896 -2.92697 36.2023
C -11.87 -4.11988 36.6851
C -13.0171 -3.71116 37.6687
C -14.0536 -4.83465 37.9632
C -15.0779 -4.48552 39.0525
C -15.9424 -5.70537 39.4405
N -16.7318 -5.48589 40.7296
C -15.7575 -5.66438 41.8579
C -17.7676 -6.52262 40.8143
C -17.3604 -4.15608 40.7773
Br 8.59025 -7.98987 18.0062
H -1.80738 3.43859 30.0317
H -0.870207 2.77691 31.6035
H -2.40483 1.13111 29.5307
H -1.51352 0.49315 30.9078
H -3.1523 1.97824 32.38
H -3.97474 2.19428 30.7572
H -4.42588 -0.00933017 30.6463
H -3.31383 -0.515434 31.8252
H -4.86969 0.410511 33.5955
H -5.88772 1.08632 32.4187
H -6.43376 -1.30985 31.6338
H -5.43607 -1.81864 33.0646
H -6.94892 -0.384722 34.5834
H -8.03893 -0.23865 33.121
H -8.46212 -2.66013 32.9669
H -7.37259 -2.78726 34.4573
H -8.79718 -1.4497 35.743
H -9.87736 -1.2554 34.4055
H -10.3827 -3.67299 34.3146
H -9.2164 -3.96459 35.6654
H -10.6631 -2.41105 37.0998
H -11.7374 -2.21584 35.7209
H -11.1545 -4.87566 37.0125
H -12.3761 -4.52649 35.856
H -12.5457 -3.32936 38.5608
H -13.5312 -2.86459 37.2789
H -13.4089 -5.71799 38.287
H -14.4377 -5.16047 37.0534
H -14.4675 -4.24202 39.8887
H -15.6164 -3.59857 38.8328
H -16.6018 -5.98323 38.5947
H -15.2027 -6.57072 39.4815
H -16.1331 -5.48394 42.8479
H -15.2932 -6.70289 41.9242
H -14.8878 -5.02224 41.8936
H -18.5517 -6.39375 40.0458
H -18.2791 -6.4869 41.702
H -17.3525 -7.54167 40.7685
H -16.7568 -3.24075 40.8822
H -18.0558 -3.87364 39.9477
H -18.0641 -4.10726 41.612
H -0.271473 2.41464 30.0028
C 6.81869 29.1575 27.967
C 6.5957 27.7264 27.5055
C 7.83298 26.8901 27.3087
C 7.61202 25.6151 26.539
C 8.80735 24.7524 26.3033
C 8.43016 23.4992 25.5779
C 9.60116 22.547 25.5055
C 9.26771 21.0551 24.985
C 10.4313 20.0339 25.1556
C 10.3841 18.8446 24.1588
C 11.5581 17.9079 24.3193
C 11.3461 16.5897 23.6736
C 10.4399 15.6295 24.4835
C 10.2128 14.1738 24.027
C 11.4116 13.2857 24.4204
C 12.3301 12.9781 23.188
N 13.644 12.3114 23.5196
C 14.2818 11.8486 22.3099
C 13.3254 11.2305 24.5006
C 14.5658 13.2753 24.1646
Br -3.64683 -20.0687 40.6163
H 7.46663 29.2017 28.9221
H 7.37111 29.6501 27.1723
H 5.94623 27.2779 28.248
H 6.04086 27.7559 26.5923
H 8.4925 27.5297 26.7107
H 8.28916 26.6691 28.2486
H 6.76899 25.1683 27.0126
H 7.2491 26.0394 25.5949
H 9.45531 25.3406 25.668
H 9.3772 24.6413 27.1652
H 7.48351 22.9583 25.9052
H 8.28365 23.6363 24.5351
H 10.3748 22.9844 24.8117
H 10.2253 22.6931 26.3525
H 8.34054 20.6288 25.4225
H 8.99954 21.2307 23.9313
H 11.4624 20.4842 25.0963
H 10.3169 19.6642 26.1822
H 9.49613 18.1868 24.2939
H 10.4513 19.272 23.2158
H 12.4413 18.4131 23.9647
H 11.7509 17.8653 25.3857
H 10.8902 16.9035 22.6858
H 12.3633 16.2294 23.4465
H 10.7076 15.6905 25.5388
H 9.40426 16.0047 24.5285
H 9.32708 13.7715 24.4815
H 9.85161 14.2761 22.9335
H 11.951 13.794 25.21
H 10.9889 12.3884 24.9392
H 11.6593 12.2942 22.6404
H 12.4855 13.9098 22.5558
H 14.9168 12.605 21.7805
H 14.9325 10.9748 22.5059
H 13.5705 11.5082 21.5077
H 12.5421 10.6035 24.0644
H 14.1834 10.5921 24.686
H 13.0971 11.4755 25.5304
H 14.7006 14.1105 23.5673
H 14.1669 13.5432 25.2143
H 15.5633 12.9201 24.2864
H 5.9081 29.7127 28.1786
C -9.34283 16.6742 34.8266
C -9.0586 15.1707 34.7129
C -8.19415 14.8212 33.5055
C -8.19779 13.3157 33.1411
C -7.37743 12.8106 31.9417
C -7.305 11.2986 31.8477
C -6.46144 10.7778 30.7492
C -6.44371 9.18561 30.7956
C -5.68265 8.6286 29.594
C -5.39113 7.09308 29.6125
C -4.81153 6.46677 28.3839
C -4.41072 4.96099 28.4976
C -3.86581 4.6178 27.1209
C -3.73016 3.11074 26.8123
C -3.43002 2.7141 25.3847
C -3.30825 1.19391 25.3225
N -3.00466 0.536918 24.0589
C -3.94734 0.92331 22.9226
C -3.19251 -0.888809 24.2636
C -1.5778 0.753368 23.6327
Br 0.614348 -2.47052 21.4678
H -8.45861 17.3131 35.1638
H -9.67799 17.1379 33.9242
H -8.54054 14.9915 35.6229
H -10.1184 14.6311 34.6554
H -8.45635 15.3943 32.5906
H -7.15092 15.0795 33.6606
H -8.04358 12.6814 34.0449
H -9.22084 13.0378 32.8178
H -7.62543 13.2751 30.9894
H -6.34077 13.113 32.1225
H -6.96919 10.8437 32.8123
H -8.33395 10.9403 31.7038
H -6.76261 11.1518 29.7544
H -5.47293 11.0852 30.9687
H -5.89763 8.97577 31.6999
H -7.39123 8.73615 30.9121
H -6.27186 8.90081 28.6912
H -4.71643 9.15834 29.508
H -4.66952 7.01191 30.4325
H -6.19628 6.47367 30.0196
H -5.57286 6.62158 27.625
H -3.90298 6.94087 28.1202
H -3.64293 4.88301 29.201
H -5.25137 4.33572 28.8959
H -4.66613 4.93984 26.4454
H -2.93053 5.03622 26.8066
H -2.87369 2.77829 27.3698
H -4.6035 2.68414 27.3324
H -4.23941 2.99631 24.7406
H -2.522 3.24177 25.1718
H -2.4997 0.894223 25.9712
H -4.23316 0.790553 25.7454
H -3.72553 0.351353 22.0559
H -4.95314 0.688461 23.2731
H -3.92303 2.01097 22.6649
H -4.14863 -1.28119 24.2842
H -2.68956 -1.27784 25.168
H -2.69824 -1.41237 23.5059
H -0.833796 0.340725 24.3657
H -1.26056 0.268124 22.6734
H -1.37565 1.82318 23.4838
H -10.1158 16.9093 35.5614
C -26.5028 0.0446564 39.7286
C -25.6949 -0.520764 38.542
C -25.6389 0.465628 37.3434
C -24.3412 0.443583 36.53
C -24.4959 1.14024 35.1305
C -23.232 0.960948 34.2216
C -22.201 2.0222 34.5677
C -20.9626 1.85861 33.7086
C -20.1076 3.08614 33.5922
C -18.8153 2.6559 32.9374
C -17.764 3.77175 32.8543
C -16.4904 3.27942 32.1473
C -15.4711 4.44221 32.1693
C -14.2045 4.10363 31.2646
C -13.2094 5.29194 31.2364
C -12.068 4.95766 30.329
N -10.9323 5.95345 30.3953
C -9.6927 5.48665 29.6756
C -10.4761 6.06754 31.865
C -11.5 7.23751 29.8103