LAMMPS data file via write_data, version 21 Jul 2020, timestep = 23300000

6293 atoms
9 atom types
2430 bonds
5 bond types
4050 angles
8 angle types
4050 dihedrals
6 dihedral types
270 impropers
1 improper types

-500.0 500.0 xlo xhi
-500.0 500.0 ylo yhi
-500.0 500.0 zlo zhi

Masses

1 12.01115
2 12.01115
3 32.064
4 15.9994
5 22.99
6 1.00797
7 22.99
8 35.453
9 196.967

Atoms # full

5546 272 7 1.0 -383.75021398131867 -382.45402328740084 -495.3709031866308 1 1 0
5535 272 7 1.0 -299.98403600543804 -489.1893446126941 -491.34131259343104 1 1 1
5641 272 7 1.0 -84.0474160091939 -464.7331814414855 -490.42969739489445 0 0 0
5316 272 7 1.0 -139.2148160877869 -253.10861364858698 -485.5618528005962 0 1 0
5377 272 7 1.0 -443.489547318069 -455.10037653461393 -480.3473775636038 0 0 0
6207 272 8 -1.0 -146.66043310584502 -440.99833754274937 -477.2366207144836 -1 1 1
6005 272 8 -1.0 -209.59052846356443 -227.59552555137944 -478.56848042518965 1 1 0
5170 272 7 1.0 -72.87418451022859 -473.3868870425133 -473.5678499353196 0 0 0
6040 272 8 -1.0 -162.35108535338873 -451.8258156574598 -468.71144362441936 0 1 0
5873 272 8 -1.0 -352.01931990717316 -186.60425963956322 -454.8955931853352 0 -1 1
6061 272 8 -1.0 -494.1836391494368 -259.4045471352071 -445.7713888019277 0 0 1
6041 272 8 -1.0 -439.62169932483994 -475.23521123391106 -427.6963617416363 1 0 0
744 68 5 1.0 -468.9914635223852 -376.80539450583257 -421.51136232201884 0 1 1
5949 272 8 -1.0 -355.63332658471404 -189.76246591485508 -393.98109904180023 0 -1 0
5224 272 7 1.0 -367.3755702025022 -326.6127690073486 -387.829908370974 0 0 0
5644 272 7 1.0 -306.7584874188584 -174.47880659877617 -366.1278180629749 0 0 1
1459 133 5 1.0 -291.8696740571249 -370.1083902646995 -356.43621556134974 0 0 0
5816 272 8 -1.0 -367.91576238107353 -393.19999966843125 -344.329538729851 1 0 0
5120 272 7 1.0 -402.9295961771606 -255.14238715630836 -345.06544374156647 1 0 0
5941 272 8 -1.0 -306.8433312038249 -225.82393563685653 -344.1397353074081 1 -1 0
6250 272 8 -1.0 -173.02030568496767 -305.03873685176114 -343.2485816862528 0 -1 0
5691 272 7 1.0 -53.31069119416028 -434.8158265233526 -332.5226795219688 0 0 0
5971 272 8 -1.0 -365.70651348416374 -203.3201415848823 -331.58013631397534 -1 0 0
6246 272 8 -1.0 -440.9687325606252 -395.9076952380472 -321.5140834831172 0 2 1
5506 272 7 1.0 -114.95675121426095 -217.97326779068447 -321.8072131388779 0 1 0
6076 272 8 -1.0 -241.253346295391 -349.6791377913399 -305.8105372849625 0 1 0
5346 272 7 1.0 -345.9229818421635 -494.4948159147206 -294.71029352111935 0 1 1
656 60 5 1.0 -108.24616232032437 -499.991978042128 -298.03776354884604 0 1 1
5687 272 7 1.0 -369.87379342327915 -479.47588726283794 -297.0283888752026 0 1 1
2240 204 5 1.0 -335.97487469950113 -322.4573982121404 -299.64049015690705 0 1 0
6276 272 8 -1.0 -74.52072875091591 -187.58579980201495 -293.83028566756786 0 0 0
5402 272 7 1.0 -25.5415267082284 -381.8517861927482 -289.52383808103366 0 1 0
5176 272 7 1.0 -363.06217481321715 -177.7350828831543 -292.99922275551455 0 1 1
5727 272 8 -1.0 -294.08008555235443 -289.58254414008115 -268.9283528424049 0 1 0
5616 272 7 1.0 -118.99135039603462 -305.9724334263654 -268.16167006415156 0 0 0
6095 272 8 -1.0 -367.70161437648534 -192.40476429378225 -259.1971842895106 1 0 0
5248 272 7 1.0 -288.03763926007076 -330.42837985533026 -254.16045617675147 -1 0 1
6183 272 8 -1.0 -249.26053287143878 -258.5770354219699 -253.11479321328034 0 0 0
1591 145 5 1.0 -73.31063421887586 -458.6675613525776 -243.2664646041858 1 0 1
1844 168 5 1.0 -378.07050726345386 -419.643473299815 -233.84277027397727 0 1 0
1624 148 5 1.0 -100.2263713945707 -396.7551686529928 -234.62003003248338 0 -1 1
5573 272 7 1.0 -5.567168252433926 -393.4806538445653 -237.09461551048952 0 0 1
6213 272 8 -1.0 -32.225217236178146 -339.2418569099675 -236.35405239714234 -1 0 1
6241 272 8 -1.0 -456.4878400344683 -322.9076507107381 -237.2449781135319 1 0 1
5886 272 8 -1.0 -469.88637397259015 -466.1661951796857 -226.3847211395422 0 0 0
5908 272 8 -1.0 -366.8441124497383 -348.2541048099969 -226.13932682826268 1 0 0
5499 272 7 1.0 -117.76528887633236 -249.60322693494484 -228.53546656944812 0 1 0
5139 272 7 1.0 -245.45305826602836 -243.37545244284715 -216.1097041038194 0 1 -1
5358 272 7 1.0 -448.1070984729481 -492.49918493214335 -209.73366528475847 0 0 0
348 32 5 1.0 -492.7225342054037 -228.5338547194586 -212.4926454005562 0 1 1
282 26 5 1.0 -266.06594734190844 -245.71604288259323 -204.66765717473535 1 1 1
6072 272 8 -1.0 -46.16442059094257 -264.88782839244266 -194.26937593586706 0 0 0
6074 272 8 -1.0 -49.08006751764508 -484.93699585485234 -189.75421501385296 0 0 0
6148 272 8 -1.0 -228.910314213362 -435.38985734898085 -191.94641178407204 1 0 0
5440 272 7 1.0 -16.593773580629964 -425.2497889434743 -182.73342680720344 0 1 1
5464 272 7 1.0 -30.442384789049797 -235.76719202685683 -186.02440346425925 0 0 0
5106 272 7 1.0 -499.44922399816676 -495.08342524750475 -176.65987054012197 1 0 0
6085 272 8 -1.0 -165.71275191645935 -474.6920564432908 -177.9807224840669 0 0 0
5557 272 7 1.0 -353.1630287362896 -236.66472988583698 -171.4510725414915 0 0 0
5356 272 7 1.0 -225.61957265954348 -195.52338505229895 -173.78141397199263 0 1 -1
6103 272 8 -1.0 -396.3889989771214 -491.7618329812769 -168.64244341703088 0 1 1
5989 272 8 -1.0 -435.44843528329307 -225.47041112070139 -164.3145719766954 1 1 0
6003 272 8 -1.0 -485.1199654038261 -193.65267226040643 -167.10804478083384 0 0 0
5275 272 7 1.0 -357.48499360970743 -225.48653164365163 -159.72465346739887 1 0 -1
5579 272 7 1.0 -460.5072055900058 -365.96590617684933 -153.8813303413206 1 0 0
6269 272 8 -1.0 -25.915149013734187 -393.498157949141 -133.89464928829972 0 0 0
5164 272 7 1.0 -475.10235253599416 -478.5122818815649 -120.68554069999651 0 1 0
5774 272 8 -1.0 -330.1952491092796 -400.9296224138157 -121.5878703492648 1 0 1
5311 272 7 1.0 -42.353830139275836 -365.1826864099069 -123.41290040463402 0 1 0
5276 272 7 1.0 -488.1720149804787 -318.74020336056793 -119.42111640299993 1 1 0
5670 272 7 1.0 -226.2357957535154 -180.5848161615273 -105.54035527925582 1 1 1
5895 272 8 -1.0 -284.9899886150069 -249.03308542709442 -98.0759077219171 0 1 0
6089 272 8 -1.0 -457.89107701399973 -255.13515334905406 -87.94915444014953 1 0 0
5956 272 8 -1.0 -193.45591408753884 -303.96563463706565 -82.85761523684853 0 0 1
5241 272 7 1.0 -209.32586826991334 -398.4172298661542 -74.77996141835241 0 1 1
5186 272 7 1.0 -269.05572635656284 -294.19749094740325 -68.76449474798838 1 -1 -1
6149 272 8 -1.0 -253.6703596100634 -370.75795798231434 -66.70732775815827 0 1 1
1305 119 5 1.0 -288.94855676127463 -409.8859598128571 -52.58393321854427 1 0 0
5190 272 7 1.0 -404.5656262327179 -443.31657424988 -49.61877766515263 0 1 -1
2350 214 5 1.0 -411.01660575798854 -265.1141435746272 -25.64892470875549 -1 0 0
6039 272 8 -1.0 -486.06288910067076 -242.58224354170738 -23.42182177827923 0 0 0
5783 272 8 -1.0 -200.2514861048014 -458.03128476789794 -15.381556962477104 0 1 0
1228 112 5 1.0 -90.96542632172242 -450.9981234493315 -8.727056006112708 0 0 0
5836 272 8 -1.0 -298.8644736738617 -268.0275518784702 -11.031881117803824 0 0 0
6166 272 8 -1.0 -481.9022512802111 -260.1360631957547 -12.18961158188516 0 1 0
5104 272 7 1.0 -24.09189045889066 -177.47098685915307 -10.400931856390352 0 0 0
6175 272 8 -1.0 -9.732175716269456 -414.5133431018079 -0.7938058894404149 0 1 1
5409 272 7 1.0 -239.63580187311015 -344.49034230893915 -0.19862866243800045 1 1 -1
5302 272 7 1.0 -484.8481142429629 -310.59276991883564 6.137039491760727 1 0 0
5504 272 7 1.0 -231.88176060811023 -418.4069134415516 7.486570733521058 0 1 -1
6278 272 8 -1.0 -230.9129560515451 -361.8285313676195 10.638869790015537 0 0 0
5113 272 7 1.0 -319.1293955336351 -465.56005575612886 15.684610960126776 0 2 1
2746 250 5 1.0 -343.0638596240903 -390.7704775360568 14.468167574577253 0 0 0
5871 272 8 -1.0 -40.72519482456351 -281.97602304323584 23.72644943081525 0 1 0
6158 272 8 -1.0 -172.00421917047115 -221.57515196643698 22.046848605260724 1 1 1
5602 272 7 1.0 -28.64813334347225 -194.8309166410357 24.713768691763246 0 0 1
5669 272 7 1.0 -359.13074936220784 -438.85518134068536 25.209411912237837 1 0 0
5649 272 7 1.0 -205.48224771064747 -249.71885834519784 29.23299939269182 1 0 0
425 39 5 1.0 -303.83434958814394 -368.83613055121555 34.510834596426456 0 1 0
6185 272 8 -1.0 -410.3524250996316 -175.73506110326 36.27605182957529 0 0 0
5208 272 7 1.0 -242.49087293323174 -396.8893215665202 50.038957888771414 0 0 -1
5166 272 7 1.0 -98.66665608383013 -289.0715620937728 52.881840313082925 0 0 -1
6249 272 8 -1.0 -241.69492595775137 -492.55835488556164 58.9323778270607 0 1 1
5594 272 7 1.0 -82.59351764163151 -452.61010641564303 61.49209022385416 0 0 0
6092 272 8 -1.0 -234.95622310161227 -374.4873947871904 59.0568492887241 0 1 0
5360 272 7 1.0 -160.4266399425904 -189.5528083263449 63.48001666120677 0 0 0
5323 272 7 1.0 -347.0256900986586 -221.84203215638928 75.19004166185714 1 0 -1
6206 272 8 -1.0 -237.1358168946296 -215.3901303244669 77.77444649942578 0 0 0
5532 272 7 1.0 -468.7050172382089 -214.42382307979315 84.19442444729658 0 0 0
5999 272 8 -1.0 -138.7002895739164 -374.01129737457927 90.21681904850146 1 1 0
5713 272 8 -1.0 -359.7020368360128 -340.61466811749636 94.00659505594157 1 1 0
5132 272 7 1.0 -428.02210686604985 -410.94074222755205 102.14418781585648 1 -1 0
5937 272 8 -1.0 -267.83004955250783 -255.075827424002 103.2112379046943 1 0 0
6180 272 8 -1.0 -382.3356803763968 -282.90099102343817 124.9971482717636 0 0 0
6010 272 8 -1.0 -467.82166194063893 -272.5860193036156 137.22225538221585 0 0 1
5806 272 8 -1.0 -40.72230951169124 -494.24710608562395 141.76576223108668 1 1 0
6287 272 8 -1.0 -374.76780274158415 -423.9244114309195 139.6730610250992 0 0 0
5718 272 8 -1.0 -169.7179435944504 -465.0399905267829 148.11177209385968 0 1 0
5607 272 7 1.0 -177.47426746092805 -474.30329611696504 154.59863017848272 0 0 0
6098 272 8 -1.0 -8.429446760916816 -474.1791054863381 157.04915153778737 0 0 0
5339 272 7 1.0 -460.2291124373277 -370.59596603703545 170.14779329424877 1 1 1
5747 272 8 -1.0 -194.39812046838765 -179.50892951381385 170.94952291943025 0 0 0
5418 272 7 1.0 -128.53199120813912 -353.7815409213575 183.0675163913037 0 1 0
5221 272 7 1.0 -438.40556685534665 -223.33682214646942 188.3185511025271 2 0 0
5693 272 7 1.0 -422.60825442653936 -181.52547401699098 192.1264855530847 0 1 -1
6200 272 8 -1.0 -108.61288363691753 -458.72478922306755 199.12053741094343 0 0 0
6265 272 8 -1.0 -177.594435653745 -220.05882077320535 199.97277413266005 0 0 0
5201 272 7 1.0 -241.8248987441086 -371.6904053291387 201.92078212626268 0 0 0
6088 272 8 -1.0 -152.90110787432192 -207.11955543688865 200.82467140197443 0 0 -1
5351 272 7 1.0 -276.0853696505488 -322.599220911122 209.48550007170505 0 0 0
1272 116 5 1.0 -161.58559717414389 -197.30487373075292 212.32356778301246 0 0 0
6151 272 8 -1.0 -299.63246740285126 -361.1175425415972 216.70504643246525 0 0 0
5715 272 8 -1.0 -485.11657244277166 -186.20233486197586 216.0406118114099 1 0 -1
5794 272 8 -1.0 -193.40593202221743 -213.07238114426386 221.79796347455587 0 0 0
5590 272 7 1.0 -35.51245496243455 -177.34336094091125 224.07570062600658 1 0 1
5249 272 7 1.0 -370.66269917660276 -484.3861317798325 227.52720434537645 0 0 -1
5855 272 8 -1.0 -21.087493117432576 -320.84934874481417 229.67867788082918 0 1 0
6210 272 8 -1.0 -296.3565019245948 -329.33868298929553 232.91420584221243 0 0 0
2966 270 5 1.0 -254.06647173185098 -428.226042862139 238.50987276749154 0 0 0
5562 272 7 1.0 -416.34678077740796 -196.31194646326844 255.49808695074435 0 0 0
6193 272 8 -1.0 -62.85747831778914 -301.63315999776285 270.8676854339506 -1 0 0
1943 177 5 1.0 -125.61390891021627 -231.8025953501865 273.94980442652485 1 1 0
5827 272 8 -1.0 -255.1691446963817 -389.6052463410567 278.6909176818907 0 0 0
5865 272 8 -1.0 -386.0753358233887 -335.0381194436689 286.71846039067367 0 0 0
6068 272 8 -1.0 -102.67627827577726 -281.4716943557556 286.5121613003264 0 0 -1
5175 272 7 1.0 -183.15999484461923 -206.33851053506055 283.02331161839254 1 0 0
5800 272 8 -1.0 -316.5002644944789 -180.3143454428979 293.151849547184 1 0 0
6127 272 8 -1.0 -140.62553858128015 -491.5807409447731 294.13408077688655 0 0 0
29 3 5 1.0 -25.417342584556632 -392.00411538708204 295.92132457852904 0 0 0
1899 173 5 1.0 -487.6428749001238 -262.9607950656765 299.39728825199506 1 1 0
6129 272 8 -1.0 -363.9849711159992 -462.1243271554266 309.16057512722296 0 0 0
6270 272 8 -1.0 -151.99605512206742 -299.6390505515678 311.0407745128541 0 0 0
799 73 5 1.0 -472.5337660318825 -255.4605572308944 311.4052447367502 1 0 -1
5118 272 7 1.0 -128.95879933561352 -365.80931821963065 316.008505618356 0 0 1
5558 272 7 1.0 -238.58611269275062 -445.7799942127874 319.2694405013289 0 0 0
5690 272 7 1.0 -121.55506725362164 -212.1056881157097 319.62785438199376 -1 1 -1
2394 218 5 1.0 -233.99031307709538 -441.3754664562151 328.850595497811 1 0 -1
5529 272 7 1.0 -211.62316495861995 -196.90089381933652 332.6626497951042 0 0 0
5361 272 7 1.0 -182.73677784106656 -492.72886269871094 340.9998852882288 1 1 0
5944 272 8 -1.0 -146.8656112385226 -412.7123578172876 338.7933022274464 0 1 -1
1250 114 5 1.0 -88.54590112880857 -387.26962534642956 338.27077007912686 0 0 0
6161 272 8 -1.0 -239.75726762738338 -473.2726085790976 348.1064249994169 0 0 0
5882 272 8 -1.0 -251.60316835576606 -240.1497004480847 344.5721918006978 0 0 0
5962 272 8 -1.0 -343.02802190913866 -175.48770553676854 349.50758995281296 0 0 -1
6133 272 8 -1.0 -96.36798421768464 -402.2512439782974 358.0897607117938 0 1 0
5242 272 7 1.0 -95.2214740532307 -290.7976477094132 361.6424751837495 -1 0 0
6223 272 8 -1.0 -78.75409018656347 -206.58823072116715 374.1867768440022 -1 1 0
5550 272 7 1.0 -386.34399943981407 -364.73763821168103 387.4810020050809 1 1 0
5384 272 7 1.0 -348.26430637268516 -468.08865254427894 388.1429523309778 0 1 -1
5771 272 8 -1.0 -109.77402035709967 -434.23889669019593 393.20964675796085 0 0 -1
942 86 5 1.0 -479.0992206593576 -356.6624200908259 392.27776072049437 0 1 0
6050 272 8 -1.0 -293.30261267791786 -195.04284923131846 390.8840637142283 0 0 -1
5976 272 8 -1.0 -298.197177636344 -385.4200084124896 395.22883949205414 1 0 -1
6053 272 8 -1.0 -254.71034113750062 -335.0046300430262 404.4016004088667 0 0 0
5814 272 8 -1.0 -314.22990634091315 -261.9161089804007 409.84126406822884 0 1 -1
5797 272 8 -1.0 -298.2408346393933 -205.9535678251391 414.1591487031451 0 -1 0
5429 272 7 1.0 -111.00217440529805 -448.9587236289081 422.07296678031736 0 0 0
5901 272 8 -1.0 -181.55645876239507 -405.74659316015425 419.1433620017175 -1 1 0
5723 272 8 -1.0 -104.29308900069967 -380.6434632521816 431.8318321612872 0 1 -1
6153 272 8 -1.0 -410.44580945089626 -400.7055953223816 454.285458316411 0 0 -1
5508 272 7 1.0 -208.3249117749864 -238.59887121727033 452.98189949232017 -1 0 0
5608 272 7 1.0 -118.11658572886927 -181.2148504205745 458.7989093985294 0 1 -1
6212 272 8 -1.0 -200.0550901376418 -425.5240410509091 472.7704452732199 0 1 0
2922 266 5 1.0 -300.4695118065427 -486.5270385398831 479.86402705689375 0 1 -1
6080 272 8 -1.0 -317.15800861482154 -262.99532446403805 478.2003057009112 1 0 -1
5614 272 7 1.0 -300.849440986431 -220.36795346800722 475.7612806322982 1 -1 0
5904 272 8 -1.0 -395.8312669862214 -444.462901762564 482.0896782231168 0 0 -1
5662 272 7 1.0 -302.2954868292325 -426.1103974727074 484.09887302382737 -1 1 -1
5524 272 7 1.0 -17.515669466737467 -389.1051931498201 481.9993820446239 0 -1 0
6264 272 8 -1.0 -257.75152338757874 -202.86955452246386 481.87408596489274 1 0 -1
5768 272 8 -1.0 -407.4838949884656 -178.30399092036737 492.3948576611106 0 0 -1
5916 272 8 -1.0 -343.1412621261415 -261.57177589595943 497.98154062308964 1 1 -1
6155 272 8 -1.0 -3.6214876327392753 -138.3639807235355 -480.6991411951718 0 0 1
5621 272 7 1.0 -469.86917741480363 -110.76861153344068 -472.58995922580107 1 0 0
5117 272 7 1.0 -338.9279992151971 138.9728864328973 -469.7678876324438 0 0 0
6121 272 8 -1.0 -349.73331573402356 -60.230004742282674 -462.96921316244465 1 0 1
5569 272 7 1.0 -270.71816263224343 -30.29430488191385 -466.1292270612298 1 1 1
5353 272 7 1.0 -38.20255012885185 -3.4698798724534896 -458.9284513456091 0 0 1
5940 272 8 -1.0 -347.3456773134419 -36.99894008770555 -442.27808246052126 0 0 0
6173 272 8 -1.0 -301.50384328595385 22.910291442142668 -437.60211404681667 0 0 0
5642 272 7 1.0 -273.8366164215737 100.34719727700237 -438.2805999079214 0 0 1
5143 272 7 1.0 -474.4519873960908 31.67485592572572 -418.9329036750152 1 1 0
5304 272 7 1.0 -451.98547634022015 30.272638570809384 -424.84292413021353 0 -1 0
2438 222 5 1.0 -211.3351739565233 -152.50259933073292 -413.8684361930739 0 0 1
6289 272 8 -1.0 -166.6427989324331 -51.87777588132366 -416.33350585049067 0 -1 0
5824 272 8 -1.0 -156.38109789863748 -9.893790370484814 -410.7193362338197 1 0 0
6000 272 8 -1.0 -13.001845385255937 -138.8532893427853 -394.82529489764386 0 1 0
5854 272 8 -1.0 -230.66294244890608 -157.35931780000035 -392.04989918724095 1 0 0
5542 272 7 1.0 -67.86438822642128 87.92846812344727 -389.18736420796944 0 0 1
2449 223 5 1.0 -79.88884842793153 159.51614618041364 -387.1971400567447 0 0 0
5400 272 7 1.0 -70.65745707408 -34.55860392499757 -377.93854873077834 0 0 1
5401 272 7 1.0 -4.260602124533495 -32.629727272317545 -375.6486944742984 0 -1 1
5240 272 7 1.0 -299.8980897068859 -58.20266786039449 -374.15994311370287 1 0 0
5580 272 7 1.0 -456.8660300109161 154.5868260445628 -368.8420495805333 0 0 1
5498 272 7 1.0 -189.4259764112569 -147.33686643245557 -356.96227406965204 0 -1 1
5868 272 8 -1.0 -95.37093985942823 -100.4633970977985 -359.4191781518675 0 0 0
5371 272 7 1.0 -386.80158961336394 139.6184602528301 -360.61903895922455 2 0 1
6130 272 8 -1.0 -464.16147517826784 -50.705085552812626 -343.566087647536 0 0 1
5968 272 8 -1.0 -40.841122035150065 152.9293642959786 -337.79226275914573 0 0 1
5285 272 7 1.0 -16.286656989331927 157.18614680095027 -342.4396785113887 -1 -1 1
6177 272 8 -1.0 -348.78219383509963 -141.1075401292795 -326.4462128829542 1 -1 0
5970 272 8 -1.0 -493.525423558637 -72.09784903682349 -322.2878800952553 1 0 0
5453 272 7 1.0 -218.11521025828497 53.69225892832828 -321.7224751806248 -1 0 0
5652 272 7 1.0 -340.08721661532127 -84.87345888524531 -317.51135814431365 0 0 1
5228 272 7 1.0 -488.2383550606853 -89.34883901854263 -310.51276286601797 1 0 0
6031 272 8 -1.0 -58.60523553758262 114.3744152489157 -308.16306082712237 -1 0 1
5613 272 7 1.0 -159.51520382135647 76.31931158214972 -299.5144046559965 1 0 0
5638 272 7 1.0 -302.4378060380732 160.98129419065893 -299.4377190124668 -1 1 0
6146 272 8 -1.0 -302.50544985330225 -128.72855651543944 -283.30661401911703 1 0 0
5909 272 8 -1.0 -236.07676860242384 -25.449233766630098 -281.82016289578496 0 0 0
5648 272 7 1.0 -247.6420559783965 -91.35722617794008 -276.834320819101 1 0 0
5730 272 8 -1.0 -316.9936166895613 -111.08213501864645 -269.4505685152056 1 0 0
5701 272 8 -1.0 -392.70568159457116 -156.58421546607693 -268.30545484305986 0 1 0
5555 272 7 1.0 -203.99165742324345 -48.59153128071431 -265.2860094329733 1 1 1
5122 272 7 1.0 -316.2870406081004 43.82712429056651 -262.31723918002206 -1 1 1
6046 272 8 -1.0 -359.57930020229054 108.17511105559188 -257.2940892880202 1 0 0
5786 272 8 -1.0 -134.59557221326273 -127.53015734342253 -251.17496818284445 0 0 0
5487 272 7 1.0 -292.7509993992638 139.8650462207032 -244.84522259653693 0 -1 0
6168 272 8 -1.0 -115.78125107010844 -135.97351513083686 -234.9638878237406 -1 0 0
5850 272 8 -1.0 -454.50187786220147 61.89952394772818 -234.9300761065107 1 0 -1
6106 272 8 -1.0 -142.57574352807134 90.90068442529189 -233.90580799920667 0 -1 1
5153 272 7 1.0 -474.3129634791592 -20.895919145449586 -226.0169233610388 0 -1 0
502 46 5 1.0 -397.92009193017316 104.37870908587283 -229.65826999491128 0 0 0
5675 272 7 1.0 -363.1595665501007 97.61091634918304 -212.81393742288736 0 0 1
5870 272 8 -1.0 -316.21039158306274 98.01513963266177 -215.24120306923936 -1 0 0
6273 272 8 -1.0 -361.30839082274593 164.78865101711213 -217.3183245211481 0 0 0
5461 272 7 1.0 -123.0182992851113 62.05933578825111 -194.04983610040884 1 -1 1
6069 272 8 -1.0 -90.77726300554646 29.661625203704098 -192.1635489276107 0 0 1
5492 272 7 1.0 -80.23152970825132 29.91830596005602 -187.91573617340242 0 0 1
2867 261 5 1.0 -13.712662898794946 120.47522605361713 -193.6885963474523 0 0 0
5205 272 7 1.0 -294.03167969871276 -106.61081258980433 -185.5169527918984 1 0 1
5159 272 7 1.0 -161.3906595142567 -78.58468613549056 -185.73653118429965 1 -1 0
2779 253 5 1.0 -380.8991575070958 -111.84786285696704 -156.95162726180865 0 0 0
5737 272 8 -1.0 -202.35374216382226 -154.43913949347277 -151.07814381430939 -1 0 0
6020 272 8 -1.0 -138.5960202970481 20.980320180463096 -153.171294986072 0 -1 1
5677 272 7 1.0 -21.537134825021713 32.849848481702246 -153.33841970898945 0 0 0
6105 272 8 -1.0 -462.153842801645 -83.60508856071752 -146.72150953555712 0 0 0
5872 272 8 -1.0 -311.29151253107483 -54.626348270303914 -130.19435863152674 1 0 0
6283 272 8 -1.0 -432.9126090990479 75.993064469419 -127.33145259198953 0 0 0
5742 272 8 -1.0 -490.42884536860737 78.63295010022927 -118.69034540397864 1 -1 0
6187 272 8 -1.0 -326.02143852139505 -117.04241169406134 -102.37279719955312 0 0 0
5373 272 7 1.0 -432.85778964557244 69.42996919514444 -104.73198314547457 0 -1 0
5169 272 7 1.0 -299.3527252495606 100.8015410986662 -97.00303315865673 1 0 0
5114 272 7 1.0 -461.8754186743913 138.39312449270537 -90.06093652027704 0 0 0
5716 272 8 -1.0 -329.7413495017437 -127.60839824505494 -83.98201207825085 0 0 1
5109 272 7 1.0 -34.83960650312736 -125.12550953977426 -86.52778256618282 0 1 -1
5996 272 8 -1.0 -207.3106843334564 154.0447066265966 -83.13270972753769 0 0 0
5494 272 7 1.0 -381.620690528356 -52.01751737062617 -71.60704058208202 1 0 0
5126 272 7 1.0 -63.062694574017655 -44.244155428435846 -66.11256632321023 0 0 0
5847 272 8 -1.0 -205.92635874598798 22.700156349666617 -63.39952214389105 0 0 -1
689 63 5 1.0 -42.99575761180669 87.94183069822247 -62.93459286288465 0 0 0
6067 272 8 -1.0 -347.9753753677344 98.3598786797083 -65.34928392661675 0 0 1
5483 272 7 1.0 -250.85347218396907 16.64936419354773 -57.33045427210619 0 0 0
6163 272 8 -1.0 -227.9290692839419 102.73891079283345 -46.81024719760711 -1 0 0
5752 272 8 -1.0 -38.70689222138888 -46.16611754295817 -42.44629535817195 0 1 0
5582 272 7 1.0 -190.1612474296107 153.3531984138685 -38.192543353774234 0 0 0
5572 272 7 1.0 -23.65773136130083 3.2081627095812526 -32.20987974582886 0 0 0
5625 272 7 1.0 -6.237286642965303 8.812752403235216 -36.90171180790436 0 0 0
2823 257 5 1.0 -84.91095670140065 72.04498057461313 -35.73147320798309 0 0 0
2944 268 5 1.0 -15.650482639290788 25.89847317381048 -27.033777400903688 0 0 0
5099 272 7 1.0 -141.4770800324697 -160.17062489004797 -23.539578253889665 0 0 0
215 20 4 -0.8 -1.5438214647472166 -6.642514857949022 -20.33263985140671 0 0 0
212 20 2 0.7 -0.40401993928603686 -6.8945721731568215 -20.87491506667804 0 0 0
269 25 4 -0.8 -2.27611672421811 -3.9986585588365773 -18.987137111873785 0 0 0
5127 272 7 1.0 -1.3468700062094987 -3.6036903013199915 -23.1350663981526 0 0 0
220 20 6 0.06 -0.03597238443901435 -4.7518470342817345 -21.00212723586357 0 0 0
267 25 2 0.7 -2.7669774952888666 -3.0644445013158963 -19.58097889011309 0 0 0
270 25 4 -0.8 -3.9459174011518696 -2.985191632195387 -20.067795605408282 0 0 0
274 25 6 0.06 -1.0470383582523282 -2.081974227581816 -20.468737653844936 0 0 0
266 25 1 -0.22 -1.8685643748165053 -1.821168073956359 -19.785111340168964 0 0 0
275 25 6 0.06 -2.490900175976334 -1.0374557337206929 -20.323023819006817 0 0 0
182 17 4 -0.8 -2.570699237107748 2.73732394583231 -18.795752743660117 0 0 0
185 17 6 0.06 -0.1397923860471604 1.776407335139765 -20.04829961901479 0 0 0
964 88 5 1.0 -6.034637820469361 4.044517782139947 -19.881585076317215 0 0 0
5643 272 7 1.0 -3.175673510766263 4.630884185702964 -22.13612732091189 1 0 0
179 17 2 0.7 -2.1265848047296183 3.832652930275455 -19.117960036239406 0 0 0
178 17 1 -0.22 -0.68025681663616 3.9135414943277747 -19.705961935484098 0 0 0
186 17 6 0.06 -0.7276338603758372 4.1715148511545745 -20.76577470281097 0 0 0
181 17 4 -0.8 -2.6672193974988376 5.001313746260625 -19.15126942872175 0 0 0
236 22 4 -0.8 -2.3691836604011605 8.489975100655379 -19.10994276818402 0 0 0
187 17 6 0.06 -0.3020511371906392 4.770394470111372 -19.275496415898655 0 0 0
5631 272 7 1.0 -4.793060614802865 9.907184296366932 -24.035535828519354 0 1 0
5130 272 7 1.0 -461.6812514422642 -79.07442677951711 -17.675869586948057 1 0 -1
2152 196 5 1.0 -13.001412042604828 -24.149280731477837 -15.791339020709804 0 0 0
5563 272 7 1.0 -9.954194592957114 -17.35109190059654 -18.33119358158583 -1 -1 0
1657 151 5 1.0 -0.002309130398350564 -17.88858578668848 -15.580380990011246 0 0 0
727 67 1 0.06 -0.002152481193453926 -10.320872254582131 -12.933388626108977 0 0 0
737 67 6 0.06 -1.189465140841637 -11.996670164592787 -13.05470680004677 0 0 0
358 33 4 -0.8 -0.4366241457972917 -11.559997406161282 -16.219122254907973 0 0 0
734 67 6 0.06 -0.7050823789628454 -9.50255913834153 -13.151767197218152 0 0 0
5251 272 7 1.0 -6.229513236945128 -12.085361906122204 -13.256383534184998 1 0 -1
363 33 6 0.06 -0.5512732204004608 -10.086717566527483 -18.369898372827038 0 0 0
5177 272 7 1.0 -7.702724817352258 -6.602220908172351 -17.579361312039655 0 0 0
5199 272 7 1.0 -3.218056096945487 -7.964316277689087 -18.28919313750714 0 0 0
360 33 6 0.06 -0.2477448125196344 -8.757868829800344 -16.34567309330026 0 0 0
501 46 4 -0.8 -2.562326665754704 -8.688476955597285 -15.20840645129477 0 0 0
506 46 6 0.06 -1.111001294442699 -7.345709987306077 -13.165184349167129 0 0 0
505 46 6 0.06 -2.444124543346836 -6.233892940827847 -13.171639416611852 0 0 0
498 46 2 0.7 -2.8852300223400182 -7.983851626137249 -14.205643404540567 0 0 0
497 46 1 -0.22 -1.9029450413223377 -6.914430525943619 -13.757315520819418 0 0 0
496 46 1 0.06 -1.2256020680672084 -6.081868272135125 -14.829247108914236 0 0 0
503 46 6 0.06 -2.046184692765786 -5.34300533766793 -15.042323544528903 0 0 0
504 46 6 0.06 -1.0007725823804656 -6.6471646970738965 -15.74150187555451 0 0 0
2976 271 9 0.0 -1.038536186287368 -3.40677414911806 -16.033561990465245 0 0 0
500 46 4 -0.8 -3.9576366053299843 -8.038312987818411 -13.509336507224505 0 0 0
413 38 4 -0.8 -5.63436622642345 -3.6728405056459277 -16.482972608069648 0 0 0
3117 271 9 0.0 -1.837031308160938 -4.092217927758392 -12.931839602912774 0 0 0
646 59 6 0.06 -3.8437754947552323 -4.533176411675149 -12.593140872674555 0 0 0
412 38 4 -0.8 -4.798028317459356 -3.146580353740993 -14.46108646299447 0 0 0
546 50 5 1.0 -9.261942010099279 -1.447220900376206 -16.176269822981876 0 0 0
553 51 2 0.7 -7.742172639550536 -0.2836280503080381 -13.512503102532888 0 0 0
555 51 4 -0.8 -8.83124013807539 0.057185061519379375 -12.949399897349148 0 0 0
552 51 1 -0.22 -6.929029285147061 0.8479608601841668 -14.057637085819072 0 0 0
561 51 6 0.06 -7.672494766001222 1.4370438910830303 -14.619292191152642 0 0 0
551 51 1 0.06 -6.330187322621773 1.7479606781001376 -12.915945646227986 0 0 0
559 51 6 0.06 -6.380534123729246 2.8191957828534595 -13.328205579668346 0 0 0
556 51 4 -0.8 -7.3922716657790675 -1.4455071881819226 -13.591406478861433 0 0 0
273 25 6 0.06 -1.008942394807758 -0.07046543619793955 -18.70610098181979 0 0 0
265 25 1 0.06 -1.2954599051832596 -1.0986624471019226 -18.5856453532992 0 0 0
560 51 6 0.06 -6.231733978022621 0.32468867506764154 -14.735891374745329 0 0 0
410 38 2 0.7 -4.879542176878615 -3.019981038172621 -15.73439731574507 0 0 0
325 30 4 -0.8 -5.5590126045103325 2.627022197938116 -17.292210363120542 0 0 0
272 25 6 0.06 -2.0411790850356013 -1.1457136818869398 -17.8322807372435 0 0 0
417 38 6 0.06 -3.097015176139828 -2.3863198732446333 -16.882477911598375 0 0 0
418 38 6 0.06 -4.540359806663025 -1.503000843702867 -17.184066914029994 0 0 0
416 38 6 0.06 -3.0579443498666974 -0.04963123341316476 -16.071021687057357 0 0 0
409 38 1 -0.22 -3.961732727318012 -1.932494826599768 -16.371388026645754 0 0 0
415 38 6 0.06 -4.233019312599604 -0.42710050927843096 -14.777699285732938 0 0 0
408 38 1 0.06 -3.500958050370454 -0.8218409009158136 -15.392150105434023 0 0 0
411 38 3 -0.18 -2.372037335945685 -1.5200743216371047 -14.322613862304985 0 0 0
2993 271 9 0.0 -2.187323134963253 1.3902576322462643 -13.452009703708583 0 0 0
2998 271 9 0.0 -1.0375978600693396 2.1829293376571974 -16.275270562020577 0 0 0
329 30 6 0.06 -3.9732363031635853 2.2090456012197053 -15.102627450693566 0 0 0
2405 219 5 1.0 -10.247460214515744 3.522344496949267 -13.766436314038767 0 0 0
322 30 2 0.7 -5.411690287195495 3.3331419971076683 -16.25916612231684 0 0 0
5460 272 7 1.0 -6.0434419615874235 7.053972149590816 -16.450125961052528 0 0 0
324 30 4 -0.8 -6.242071394703849 4.091000423551504 -15.773349778519904 0 0 0
468 43 4 -0.8 -6.214020247561806 9.350192655718644 -13.583149016007876 0 0 0
330 30 6 0.06 -3.3264203586951293 3.37395760447758 -16.211146294318084 0 0 0
237 22 4 -0.8 -0.5171624612376782 7.439682436197531 -18.354516397244172 0 0 0
321 30 1 -0.22 -4.090421287393651 3.2425471559454833 -15.49960467940629 0 0 0
327 30 6 0.06 -4.668562557904588 4.238662099477303 -13.745720536561262 0 0 0
328 30 6 0.06 -3.6407828616421236 5.226138147222924 -14.926728319800784 0 0 0
320 30 1 0.06 -3.8342916594157286 4.263637185536555 -14.43323423239789 0 0 0
3028 271 9 0.0 -1.9856284002344076 5.162081597157033 -16.33170296707935 0 0 0
323 30 3 -0.18 -2.3400420260651713 3.817295985730254 -13.461990519755679 0 0 0
3024 271 9 0.0 -1.7389211232933006 6.289022066114033 -12.69090183349306 0 0 0
232 22 1 0.06 -1.307497677592093 8.151740965235113 -15.636921682369673 0 0 0
239 22 6 0.06 -2.164411736834271 7.481496485432938 -15.753542280155635 0 0 0
233 22 1 -0.22 -1.4510510496438356 9.038911242138534 -16.871071839191146 0 0 0
240 22 6 0.06 -1.4479115780276006 8.718576523673462 -14.75151632727918 0 0 0
234 22 2 0.7 -1.4488851541946492 8.254867594324013 -18.23155370306892 0 0 0
470 43 6 0.06 -4.2323922583695905 7.611352722837474 -12.948067367908187 0 0 0