LAMMPS data file via write_data, version 21 Jul 2020, timestep = 10100000

9113 atoms
14 atom types
5367 bonds
20 bond types
7164 angles
34 angle types
3756 dihedrals
30 dihedral types
270 impropers
1 improper types

-450.0 550.0 xlo xhi
-450.0 550.0 ylo yhi
-450.0 550.0 zlo zhi

Masses

1 14.027
2 12.011
3 15.999
4 1.008
5 12.011
6 15.999
7 22.99
8 35.453
9 196.967
10 15.035
11 14.027
12 13.019
13 14.007
14 1.008

Atoms # full

128457 92 8 -1.0 -156.17898488737617 -277.80292205368664 -428.72445307173217 1 0 0
4037 92 7 1.0 -295.82954848760556 -204.06495447046308 -427.55422487833334 0 0 0
3711 92 7 1.0 -221.269023687728 -406.5664614085511 -396.0545913426928 0 0 1
3664 92 8 -1.0 -222.5499284319591 -301.23404962206376 -385.683639537403 0 0 0
4469 92 7 1.0 -397.2084420881899 -218.22481571883569 -376.3396100645123 1 -1 0
3980 92 8 -1.0 -198.37990765733406 -266.1933711627546 -365.6068149116184 0 0 1
4490 92 8 -1.0 -306.4102551283061 -244.7428423879962 -363.1180085199968 0 0 1
128599 92 8 -1.0 -425.56680224482767 -385.0928590829234 -332.2733410317627 0 0 -1
128715 92 8 -1.0 11.532236666675386 -341.37179647250196 -336.9605591582195 0 0 0
4151 92 7 1.0 -330.6198565199985 -203.05281453053135 -331.10239643684525 1 0 0
4382 92 8 -1.0 -199.7087359427778 -137.14468401808193 -310.7459019414115 0 0 1
3667 92 7 1.0 -271.8116723292927 -410.8788995099251 -303.5908169103245 0 0 0
3723 92 7 1.0 -94.56714570994114 -238.1916843147793 -295.79621913017877 0 1 0
4303 92 7 1.0 -300.35595133692414 -436.3164666208225 -289.0643171217143 1 0 -1
4336 92 8 -1.0 -262.17060465431905 -219.72116045847451 -286.27400357001613 1 1 0
3958 92 8 -1.0 -208.13224489854082 -399.7855215008185 -266.56285366500737 0 1 1
4026 92 8 -1.0 -133.46201797881443 -398.1010066454787 -268.35942276620455 1 0 0
3787 92 7 1.0 -59.68261737637311 -195.84637834764027 -264.3043933663409 0 0 1
3783 92 7 1.0 -279.5948887989461 -174.51207864087903 -266.854093202824 0 0 1
3785 92 7 1.0 -283.6983110745895 -138.1872985986356 -244.49682284693222 0 0 1
4337 92 7 1.0 -193.7535546548264 -353.35467968248 -238.05728299126068 0 0 1
4787 92 7 1.0 -303.4240157022387 -322.336552304593 -240.92412761769035 0 0 0
4247 92 7 1.0 -179.83316841851382 -306.9287010700011 -238.4683981935197 1 0 0
4635 92 7 1.0 -401.33210092820013 -449.9635489580279 -234.95152415530364 1 2 0
4815 92 7 1.0 -57.574395988666744 -348.1457720133726 -236.92318967738248 0 0 0
3737 92 7 1.0 -295.9450085974214 -296.83864201094434 -236.36508407814947 1 0 0
128762 92 8 -1.0 -158.2350742908586 -244.70309183534403 -234.27635128845355 0 0 0
3851 92 7 1.0 -81.79199326269551 -124.43617081580129 -206.7796807466985 1 0 -1
4805 92 7 1.0 -352.0066903925565 -324.6788292344889 -192.34732293469543 1 0 0
4567 92 7 1.0 -286.83108076376755 -229.72706575294836 -191.36499484558342 0 0 -1
3994 92 8 -1.0 -233.45598807847338 -171.26214669676162 -190.93129877673894 1 0 1
4153 92 7 1.0 -383.6446634138097 -124.60158709022548 -192.43128153076825 0 0 -1
128585 92 8 -1.0 -329.7939818892936 -337.5826681007425 -183.27674818282347 0 0 0
3861 92 7 1.0 41.56719202369479 -290.1869842703772 -185.0572338682732 0 1 1
4543 92 7 1.0 -277.2825547672647 -209.0398654266378 -185.55744027310425 0 0 0
4055 92 7 1.0 -95.98135379541158 -400.254457067849 -177.00649341315594 0 0 0
4599 92 7 1.0 -8.21891985844849 -372.30636060378157 -181.09389801940497 0 0 0
4848 92 8 -1.0 -431.433040499304 -293.5574161731787 -176.16315229389545 0 1 1
128662 92 8 -1.0 -44.4731359823585 -339.6087297123655 -173.39053251467755 0 0 0
4189 92 7 1.0 -434.75212323560555 -281.6769279106452 -168.71089737750137 0 0 1
4446 92 8 -1.0 -101.79665635385253 -204.34670974805908 -164.47016357309337 0 0 0
4847 92 7 1.0 -254.94440043427954 -435.92452175111015 -161.58117099276745 0 0 1
4780 92 8 -1.0 -200.5505117486639 -297.6087386603587 -159.42552445842028 0 0 0
4657 92 7 1.0 -217.07592644495438 -275.502682125352 -151.67300226940452 0 0 1
3842 92 8 -1.0 48.287920678176974 -244.25179138306606 -152.91101388519826 -1 1 1
128650 92 8 -1.0 -222.11110884541878 -152.5464583756548 -147.37163507207174 0 0 -1
128611 92 8 -1.0 15.842226982739117 -348.48956705726255 -139.3294993532966 0 0 0
4493 92 7 1.0 -409.2008507416031 -271.3735605857466 -125.30480077253391 1 0 1
4021 92 7 1.0 13.094744319371145 -412.6231995569575 -116.67518693004678 0 1 0
4197 92 7 1.0 -134.09139581838897 -123.43257874052884 -113.67446769518939 0 0 0
4409 92 7 1.0 -156.7543316609661 -421.31429242431875 -110.41901578921394 1 0 0
4555 92 7 1.0 -19.659584643208007 -265.45310726786886 -111.14021008584943 0 0 0
4724 92 8 -1.0 -285.2778718215295 -230.04242408808315 -106.52783875981208 0 0 0
4167 92 7 1.0 -187.8156929086985 -349.3328475787566 -103.31529808724623 0 0 0
4684 92 8 -1.0 -212.68472548626465 -296.0434462898458 -101.17131448010731 0 1 0
3694 92 8 -1.0 -416.0035872349607 -272.878701810781 -101.30865704013334 1 1 0
4110 92 8 -1.0 -42.62608123017717 -268.02605079578774 -100.27447463979846 0 0 0
3911 92 7 1.0 -126.4307217259864 -275.1857540323896 -96.26775935471277 1 1 0
4029 92 7 1.0 -422.38208496645206 -406.22139481222 -85.00186567662988 1 1 1
4676 92 8 -1.0 -251.47043071827625 -201.20621949942495 -81.72622802565257 0 0 0
3759 92 7 1.0 -66.53994820007831 -165.28965095468672 -77.01298269549496 -1 1 0
128625 92 8 -1.0 -75.38474791628269 -398.69154670318215 -69.5484483550884 0 0 -1
128736 92 8 -1.0 -137.39531964758768 -279.0616456944955 -74.01054202700743 0 0 -1
3806 92 8 -1.0 4.717726156255158 -137.5929230048656 -65.95001396749126 0 0 0
4565 92 7 1.0 -68.72118520935798 -121.38239812510157 -58.666516208487856 0 1 0
4361 92 7 1.0 -436.06990974523933 -276.84557280464963 -51.20025166055727 0 0 0
4737 92 7 1.0 -421.3330812853116 -229.1730249631284 -46.28352323855759 1 0 0
4311 92 7 1.0 -35.08428713231096 -120.6053670467135 -29.476180192019722 0 0 0
4121 92 7 1.0 -300.3372823773976 -372.73900712763077 -24.12043512268588 0 0 0
4137 92 7 1.0 -252.01199086922708 -148.43886288297682 -22.980033544493782 1 0 1
4711 92 7 1.0 -62.28620690240279 -148.16045155715028 -21.36493280316325 0 0 0
3982 92 8 -1.0 -343.6943286545053 -223.40867079952358 -16.47656704740867 0 1 0
4683 92 7 1.0 -372.13006232090146 -204.1263787676799 -18.290337513462507 1 1 -1
4082 92 8 -1.0 -350.95120881871213 -216.52367246326824 -6.100631954731054 0 1 0
4631 92 7 1.0 -68.26649403388566 -359.02820184679257 0.08731768823465144 0 1 1
4273 92 7 1.0 -131.29709500991166 -327.29530366510795 13.893471447329937 0 0 1
4349 92 7 1.0 -40.39243662991012 -387.6329093550178 23.22872543034964 0 1 0
4810 92 8 -1.0 -337.8912379496863 -328.9395888009782 22.160872872502807 0 0 0
4437 92 7 1.0 -137.70656656936086 -132.5354019374453 23.32784478987353 0 0 -1
3686 92 8 -1.0 -260.9384616137357 -302.6868485231983 26.706932918100286 0 0 -1
3885 92 7 1.0 -26.739280695835784 -259.51097143262507 36.461349636430576 0 0 0
4497 92 7 1.0 -229.46153345839292 -295.3395174925923 42.44821529007384 1 0 0
128637 92 8 -1.0 -176.1287990161881 -188.59658131419022 40.92249790520806 0 0 -1
4284 92 8 -1.0 -395.1230502532021 -327.70327969313314 47.18570441835704 1 0 0
4313 92 7 1.0 -410.91223754688303 -288.51963271610276 48.26420457214786 1 1 0
4381 92 7 1.0 18.321925871315333 -271.00754629233614 51.355200640850136 0 1 0
128583 92 8 -1.0 -294.4269183808066 -219.57690658571016 50.85601994416757 -1 0 -1
4214 92 8 -1.0 -141.91063448327154 -400.67595724080826 57.06949881486932 0 1 1
128518 92 8 -1.0 -118.72185162194623 -336.70656618652345 61.89395571890356 0 0 -1
3781 92 7 1.0 -240.4671917845442 -178.54631841027253 57.889419766346165 0 0 1
4751 92 7 1.0 -288.0921337856993 -150.5127231923269 61.26842202510054 0 0 1
4379 92 7 1.0 -449.5846253662439 -285.2957596141509 65.91076023864595 1 0 1
4654 92 8 -1.0 -391.02165247883806 -220.42210752967583 62.561915982362514 1 0 0
4081 92 7 1.0 -359.3674927816493 -353.9279076631372 75.57903033597498 0 0 1
4263 92 7 1.0 -376.5350813434529 -214.14448954042257 77.06474295683037 1 1 0
4230 92 8 -1.0 -128.9585044309555 -183.92402515321052 75.84127707341123 0 0 0
128503 92 8 -1.0 -332.8720416046925 -361.30231596064016 86.8373692327 0 0 0
128701 92 8 -1.0 -252.38560226399355 -337.6571431611725 83.73066405301482 1 0 -1
4097 92 7 1.0 -163.74444480471595 -275.41640722167057 84.73296127231188 -1 0 0
4791 92 7 1.0 -334.6810099157477 -170.4176215072122 82.04297812219524 0 0 0
3846 92 8 -1.0 -329.73469679934647 -169.477760475986 84.17297190776434 0 0 0
3937 92 7 1.0 -432.2604449740312 -136.24030515900253 85.91538790140892 0 0 0
3963 92 7 1.0 -100.28147421189138 -124.47340930681133 82.78397924299652 -1 0 0
4391 92 7 1.0 -372.74059060759504 -409.3202137783889 99.8941299943365 1 1 0
128485 92 8 -1.0 -272.4487059889231 -372.51323314516435 105.58027331583192 0 0 -1
4421 92 7 1.0 -314.34450675472664 -298.47588774301056 103.73178131992105 0 0 -1
4076 92 8 -1.0 -19.068151992441624 -247.34279781515568 116.5902057352407 0 0 -1
4003 92 7 1.0 -447.5074782528203 -234.2246400161909 114.01692595703842 0 0 0
4843 92 7 1.0 -111.01881190224299 -134.47995259228128 115.07150528574472 0 1 -1
4499 92 7 1.0 -326.73465521378284 -448.06636582835625 122.07002570226258 1 0 1
4119 92 7 1.0 -322.629650701639 -447.8436876371278 127.68615336985582 -1 0 0
4117 92 7 1.0 -214.8737778945498 -413.8025420246797 136.34299454879084 0 0 -1
4486 92 8 -1.0 -182.28666082958895 -310.83953408170674 138.5233405949757 1 0 -1
4426 92 8 -1.0 -303.36585174771267 -409.44210404478235 147.94778765150133 0 0 0
4691 92 7 1.0 -40.375366756728134 -312.73253825374405 143.9698801606583 1 0 0
3687 92 7 1.0 -219.61073459557232 -238.6951118102752 152.56169226202542 0 0 0
4224 92 8 -1.0 -407.38508173675996 -430.56776439386795 163.9490357204291 0 1 -1
3764 92 8 -1.0 -54.62855589875612 -299.41567031776935 163.4306885201863 0 1 0
4651 92 7 1.0 -176.45742504515223 -295.93630002228326 164.32490148105194 0 1 1
128639 92 8 -1.0 -75.56322656148801 -234.67166064470928 162.66308880463754 -1 0 -1
4281 92 7 1.0 -412.7799388745761 -204.18930789677276 163.85685350548712 0 0 0
3992 92 8 -1.0 -318.2933896171401 -165.6297716517742 163.83385658338673 1 1 0
3927 92 7 1.0 -327.51399432819767 -140.13762104581792 164.76102644717105 2 0 -1
4545 92 7 1.0 -106.55199775630605 -383.4624827655088 174.95199281237458 -1 0 0
4551 92 7 1.0 -189.58779548629897 -332.779649177898 173.76318005811282 0 1 -1
4040 92 8 -1.0 46.23781439364529 -301.3561459095123 170.68931956227814 -1 0 0
128623 92 8 -1.0 -229.47378916935213 -281.158922715528 174.78357918625113 0 -1 0
4468 92 8 -1.0 44.38073382200212 -221.64782698062712 172.03954018481585 0 0 -1
3916 92 8 -1.0 -378.119478913102 -169.44050010630204 174.12782917035318 0 1 0
4510 92 8 -1.0 48.462402903428334 -135.24784873953536 169.50113399528797 0 0 0
4481 92 7 1.0 -156.31581508856212 -425.2972590321918 192.32006569356219 0 1 0
4693 92 7 1.0 31.402155574131097 -371.5450873010729 191.97681458498943 1 0 0
3879 92 7 1.0 -117.28155853517703 -293.27591493729375 189.58261577744588 0 0 0
3701 92 7 1.0 -343.60796299334874 -263.0618551285709 189.4094466220754 0 0 0
4475 92 7 1.0 29.80598149613492 -413.06712945852155 193.85020734821538 1 1 -1
4267 92 7 1.0 -71.71585355329442 -150.741674414031 204.7140002599185 0 0 0
4332 92 8 -1.0 -112.66360379039135 -442.43870550360873 212.43605773119012 1 0 0
3762 92 8 -1.0 -183.7476393585828 -325.67213119774766 211.3245887568375 0 0 0
128688 92 8 -1.0 -149.25311895448627 -431.828472867048 218.73339611850614 0 1 0
3855 92 7 1.0 -55.746581948378385 -244.84065432442247 214.84517047126576 1 0 0
128724 92 8 -1.0 -240.41803579923447 -199.039158632958 224.02827996185908 -1 0 -1
4084 92 8 -1.0 -30.88794542646353 -356.6401444960277 228.42226207931517 0 1 0
4112 92 8 -1.0 -92.73285508113109 -190.86706578812883 230.58615939217253 0 0 0
4268 92 8 -1.0 -166.34028939225703 -125.1070078577112 227.46505730892272 0 0 0
3973 92 7 1.0 -83.25234954953852 -189.6088357842271 232.8133624795174 0 0 1
4047 92 7 1.0 -86.61930871436468 -182.03402406758772 243.02319830098796 0 0 0
128619 92 8 -1.0 -55.48649959492633 -362.22079172201126 246.6054630419528 0 0 -1
4782 92 8 -1.0 37.804826581159105 -165.405559004909 245.91280579626175 0 0 0
128617 92 8 -1.0 -428.91355282914844 -125.00184932356416 244.0218519263714 0 -1 0
128533 92 8 -1.0 -47.63039434303909 -416.19220791559945 256.0862522203794 -1 1 -1
4344 92 8 -1.0 -358.9544925363368 -122.76819419534786 253.49536197511472 0 0 0
4585 92 7 1.0 -308.04891117018946 -340.8346022331896 257.4918049896167 0 0 -1
4116 92 8 -1.0 -73.94738231269243 -439.8288181498909 262.9238433682905 0 0 0
3896 92 8 -1.0 -264.41952321073785 -315.42501106287926 270.6846522837139 0 1 0
4455 92 7 1.0 -2.360632343146283 -186.73014134902675 272.449596768503 0 0 0
4401 92 7 1.0 -254.61139662374694 -267.84747468411473 286.9697418410696 1 1 0
128475 92 8 -1.0 -417.69864396683846 -343.21272881518973 294.42691665048136 0 0 0
128692 92 8 -1.0 -260.49319463635806 -201.16894379749505 301.8187801849723 0 1 -1
4492 92 8 -1.0 -17.96540973286668 -140.7736355683958 301.21636796609886 0 0 0
128700 92 8 -1.0 31.931666744046098 -383.4529146997318 308.1463469752539 -1 1 -1
128740 92 8 -1.0 -208.56183291156196 -355.63484982853606 310.4198847122432 0 1 -1
3793 92 7 1.0 -271.56876925368323 -151.30137350699303 314.5883066948154 0 0 0
128529 92 8 -1.0 -50.5284036319711 -240.51163185268246 319.1041157627534 1 -1 0
4149 92 7 1.0 -204.52161573632725 -238.15760030401478 325.2012805954333 1 -1 0
4302 92 8 -1.0 -384.85048670159136 -147.69820135387945 326.8626655564648 0 0 0
4633 92 7 1.0 -202.28758580603795 -415.7283373451272 337.48846923550894 0 0 1
4701 92 7 1.0 -19.88653302663769 -396.4239920885224 343.44795870135306 1 0 0
4044 92 8 -1.0 39.669520662470106 -129.940707820944 337.975725948116 0 0 0
128738 92 8 -1.0 -83.2577414982874 -168.9164097943949 348.6169247084703 0 0 -1
4370 92 8 -1.0 -213.68429073723647 -300.41214623020613 353.8411661922946 0 1 -1
4213 92 7 1.0 -127.66118285718579 -299.0333087185917 354.8607781808542 -1 1 0
3810 92 8 -1.0 -90.12795317265532 -143.47192100264326 357.0091997008801 0 1 -1
4106 92 8 -1.0 -107.78424220393211 -336.4921486459618 365.7133631056978 0 0 -1
4309 92 7 1.0 -65.852061239897 -402.32891749260676 371.78709553639965 0 1 -1
128487 92 8 -1.0 9.591039530079902 -270.919301661038 371.28491909793416 0 0 -1
4641 92 7 1.0 -339.70741286573 -144.60898814030892 373.7102947627725 1 1 -1
4346 92 8 -1.0 26.914116907571778 -136.0310297073829 381.28002161250544 0 0 0
4639 92 7 1.0 -190.21315933208015 -157.0304105555245 397.49828827007747 0 1 0
4435 92 7 1.0 29.48721834977195 -154.1666603312849 394.74180298794226 0 0 0
3678 92 8 -1.0 -175.18562122089435 -119.67227896236177 398.0449756054675 1 0 0
128496 92 8 -1.0 -385.2524833984687 -272.0006728396833 407.6037131594745 0 0 -1
3866 92 8 -1.0 -24.72470418988742 -150.00931357270588 415.999542837994 0 1 0
128778 92 8 -1.0 -315.9947325654351 -195.37753450045645 422.002484589485 0 0 -1
3670 92 8 -1.0 19.154161429529577 -188.1799189481238 421.98864366585724 0 0 0
4483 92 7 1.0 -125.97219209271292 -231.99058492724075 426.6150939139609 1 0 0
128555 92 8 -1.0 -410.5780550445356 -205.90841478425713 435.6072233138065 1 0 0
4473 92 7 1.0 -248.10029459951556 -190.8611617221215 441.90081107841326 0 0 -1
4293 92 7 1.0 -106.29089751738762 -200.27442352148705 446.59953999670665 0 1 0
3735 92 7 1.0 -16.66052654816177 -191.9289682479094 447.80232461778644 -1 0 0
3657 92 7 1.0 -43.73101848810332 -291.27661892747943 450.4756192326326 1 0 0
4295 92 7 1.0 32.9992893035012 -278.51850559732344 455.15488600271885 0 0 1
4851 92 7 1.0 -317.37148921843897 -121.48098115168655 459.6202737379021 0 -1 1
128511 92 8 -1.0 -304.79943162770303 -391.33011674828845 465.97730776933855 0 1 -1
3891 92 7 1.0 -265.83374849006225 -208.55640654048645 468.9638108241282 0 0 -2
4410 92 8 -1.0 -299.27498507258645 -193.30105636010376 473.94565355089725 0 0 -1
128588 92 8 -1.0 -58.16408529120539 -173.03124865328547 489.5765200228805 0 0 -1
4656 92 8 -1.0 8.727725217853212 -191.16091687612004 501.008185562368 0 0 0
4643 92 7 1.0 15.583754740319955 -190.25803639091916 500.580492057977 0 -1 -1
3988 92 8 -1.0 -192.24271210688187 -431.4596348854093 521.2610042855166 0 1 -1
4239 92 7 1.0 -400.93490401745555 -195.88633550637508 523.4262789612328 0 0 -1
4835 92 7 1.0 -48.67629180744067 -299.1882214795577 527.0736840609944 1 1 0
128665 92 8 -1.0 -26.781213873522663 -141.46165242986254 525.4596518914701 -1 0 -1
3989 92 7 1.0 -119.30411598115191 -98.24360298857506 -449.86539187849553 0 0 0
128488 92 8 -1.0 -118.71984362023665 -96.12288332815778 -445.4025186024279 0 0 -1
3843 92 7 1.0 20.973604298774976 182.81365969017946 -444.3065155129144 1 -1 0
128499 92 8 -1.0 -49.628957100400825 183.1539218469231 -430.4279277748314 0 -1 0
128746 92 8 -1.0 -79.07389390718659 -76.01498167867516 -420.0895020810009 0 0 0
4800 92 8 -1.0 48.58173459897197 148.23624278439664 -420.3248882758069 0 0 0
3923 92 7 1.0 -10.636620154183552 -2.156980284641888 -410.6575443042911 0 0 0
4562 92 8 -1.0 9.768943161943072 173.74505740417433 -410.23606586938996 1 0 1
4226 92 8 -1.0 -164.8411056626848 209.48665349411698 -402.69208555465025 0 0 -1
4041 92 7 1.0 -323.78272133747896 -70.7525632268628 -392.0573593557398 1 1 1
3845 92 7 1.0 -134.34429598181904 -70.00639567442347 -387.78711067417197 0 0 0
128510 92 8 -1.0 -89.00744936863019 38.508521457176606 -391.2079737165353 0 0 0
3921 92 7 1.0 -103.915926274182 213.51919227223618 -389.74910284707795 0 0 0
128771 92 8 -1.0 -434.215843478567 -38.28181929643742 -383.6590410239663 0 -1 0
3756 92 8 -1.0 -250.86622707816392 135.50426846758626 -384.3494609864964 1 0 1
4383 92 7 1.0 -67.87160987063848 20.28976659921371 -372.7331746928834 0 1 1
3966 92 8 -1.0 -113.59940907249158 -4.423922228286373 -364.0165830303701 0 0 0
3709 92 7 1.0 -418.932499665481 115.63425754155142 -362.8515557393945 1 0 1
3789 92 7 1.0 -115.77574949098008 24.82413382069569 -361.98382477217945 -1 -1 0
4333 92 7 1.0 -117.50215802218362 175.17136056138654 -350.2723841654676 0 0 0
128494 92 8 -1.0 -296.4027351577953 -70.84459197384959 -343.89965111938704 1 0 -1
3895 92 7 1.0 -227.54134723649003 4.8332404306965655 -344.22803599206964 0 0 0
4002 92 8 -1.0 19.153138488932317 64.7195110651384 -347.2347846008267 0 0 0
4193 92 7 1.0 -353.889311509296 80.99878759100869 -343.56641322484535 0 0 0
4809 92 7 1.0 -60.11232210558789 123.59774704358433 -326.01045584011536 0 1 1
128607 92 8 -1.0 -134.33790655290906 155.829300411615 -330.6856861115718 -1 0 0
4168 92 8 -1.0 -324.1065251847027 178.94877137714857 -328.84754461872205 0 0 0
128685 92 8 -1.0 -356.308881274311 -37.7709469348568 -314.099012944798 0 0 0
3819 92 7 1.0 -33.50908518196356 52.904631436870254 -316.07865567327957 0 0 0
128735 92 8 -1.0 -401.11660264263594 87.27487452788235 -318.0172035298188 0 0 0
128742 92 8 -1.0 -15.668811639867705 27.585434916621253 -301.3927111434862 0 0 0
4085 92 7 1.0 -180.38628319843497 54.13662746599436 -303.61791936302654 0 0 0
4205 92 7 1.0 -26.0886677771151 -23.2093618543116 -299.82160903255084 1 0 0
128492 92 8 -1.0 -232.04264642517953 -2.1502267149074976 -298.7555626471157 0 0 0
4604 92 8 -1.0 -34.26790949597818 28.670869141658933 -298.1765702073915 0 0 1
4296 92 8 -1.0 -351.3847048595342 -60.40934388069621 -290.9119511375575 1 0 0
4211 92 7 1.0 45.047004420911854 -114.1650546052586 -285.02422713050714 1 -1 1
128770 92 8 -1.0 -1.8720229315023593 54.21733088374329 -286.39491433649033 0 -1 1
4289 92 7 1.0 -245.06817942937903 210.038667139193 -275.86078239912194 1 0 0
3880 92 8 -1.0 -47.029890881406324 -41.26608098107528 -270.5114748011521 -1 0 0
4533 92 7 1.0 -47.94691776629223 174.16107223733985 -273.2087636583668 1 0 0
128747 92 8 -1.0 -277.48563289756527 -41.865404769461925 -265.358422184018 0 0 0
3951 92 7 1.0 -382.75330956642006 96.69545605066263 -267.49457936165436 -1 0 1
4173 92 7 1.0 -86.96861738157406 167.90523742344465 -268.37593398680093 -1 1 0
4347 92 7 1.0 -115.26356620216082 5.9768478152337305 -245.7784890552703 0 1 0
4253 92 7 1.0 -101.71950342610519 185.46270923523133 -244.93626742926696 -1 0 0
4648 92 8 -1.0 41.328102838168306 27.805104965378135 -242.57811861669404 0 0 1
3741 92 7 1.0 -337.1603689403407 57.30295800915753 -232.4214173575355 1 0 0
4107 92 7 1.0 -186.66351931558924 171.2855735826525 -225.6465374391626 0 0 0
3833 92 7 1.0 -373.2035718419862 119.58156889271864 -215.9540476205954 0 -1 0
4352 92 8 -1.0 -41.44311671701802 -65.444422714954 -208.77793823855643 0 0 0
4617 92 7 1.0 -54.78748666186267 -54.60691026265714 -208.79370882405425 1 0 1
4735 92 7 1.0 7.897631342312224 27.631733852205436 -208.88469866444896 1 0 1
4166 92 8 -1.0 -277.2489324098692 -45.41924496394123 -202.52849088079338 1 0 0
3814 92 8 -1.0 -28.410604034363494 72.83297633936942 -192.71097313890346 0 0 1
128524 92 8 -1.0 -162.33784343361305 131.40388497367994 -188.65553897442314 0 -1 0
4571 92 7 1.0 -249.07482931121442 188.51085886019922 -183.8710007442569 0 0 0
3705 92 7 1.0 10.199874808422763 -51.71975001203763 -179.18878304111487 0 0 0
4581 92 7 1.0 -434.3076092045202 -40.55613556960617 -175.6071698064119 0 1 0
4413 92 7 1.0 -139.93227494461104 34.018003498256526 -180.798951198111 0 0 -1
4823 92 7 1.0 -354.7078632285388 45.72164978813485 -178.68859631240582 0 0 -1
3679 92 7 1.0 -49.828139550287055 140.18689972243882 -176.32857737208326 0 0 0
4009 92 7 1.0 -136.31658196368141 -103.70975309331746 -169.96563293172144 0 -1 0
3874 92 8 -1.0 13.759217519082947 -107.10601623621264 -163.35532541165628 0 0 1
128547 92 8 -1.0 -25.36305191028667 198.3410285666778 -151.6237762056949 -1 -1 0
128598 92 8 -1.0 -437.81727823053285 -55.092047441311315 -148.39739976249237 0 -1 0
4053 92 7 1.0 21.109079392573722 -31.694524667576694 -138.23144414777914 0 0 -1
3707 92 7 1.0 -127.68927895245658 -6.962825084499577 -143.46900023273588 0 0 1
4812 92 8 -1.0 26.16933225089165 -0.8075854842162733 -132.09406991182564 1 0 0
3979 92 7 1.0 27.37469338559071 88.9494366557085 -135.61406456331355 -1 1 0
128566 92 8 -1.0 -306.3223675758283 215.68611223878602 -128.61398093096955 0 1 0
3925 92 7 1.0 -237.0649690109777 -69.14384350775052 -119.14458348136395 0 1 0
4531 92 7 1.0 -430.6480063435076 -31.575909297550126 -112.67079682228506 0 1 1
3878 92 8 -1.0 -190.41288226786762 -64.41493272366806 -108.06515259385407 0 1 0
4396 92 8 -1.0 -37.81693056086267 33.655780538892685 -102.54407287448683 0 0 0
128677 92 8 -1.0 -189.17614734249318 53.22787177557952 -105.8144087384868 0 0 0
4753 92 7 1.0 -201.51199442925767 184.36445801205684 -100.12894982008456 0 -1 0
3713 92 7 1.0 -146.87570217414444 -55.799322899814804 -95.61358733422344 0 1 0
3922 92 8 -1.0 16.609908416604704 146.39724113797274 -94.04253496697763 0 0 0
3907 92 7 1.0 -388.85116662605554 104.0887513341917 -90.53517830920042 1 1 1
128633 92 8 -1.0 -36.10469047773376 154.39762500098794 -88.17649902494645 -1 0 -1
3893 92 7 1.0 -160.87306765348578 77.8792837522316 -84.18029988533607 -1 0 0
4652 92 8 -1.0 -86.13378328325425 123.45487719399279 -86.77627389086457 -1 0 0
3714 92 8 -1.0 -165.35097435471312 205.5838062449427 -86.22384162539197 0 0 1
128479 92 8 -1.0 -159.3112833025502 -3.624224188684885 -72.55999606071939 -1 0 -1
128538 92 8 -1.0 -448.38447284125544 4.153229471544603 -72.60807567951157 0 0 0
4297 92 7 1.0 -83.04651405837971 5.369474201825127 -62.94325344012365 1 0 1
128560 92 8 -1.0 -187.23027380098458 117.51211153280107 -60.42644113275599 0 0 0
4511 92 7 1.0 -405.22168902357964 1.3069793364847875 -53.58926049898079 1 1 0
4237 92 7 1.0 -279.3320056409534 -16.09187365834906 -46.281416256794 1 -1 0
4318 92 8 -1.0 -423.6569182103755 73.8643975547358 -49.85389322637877 1 0 0
4761 92 7 1.0 -338.0878625588915 197.168034570144 -38.10193198093105 0 0 1
128618 92 8 -1.0 -304.04367934216765 -105.94072842009612 -31.256897265734782 -1 0 -1
3873 92 7 1.0 -401.5630151080773 -19.066180728239928 -32.66112811218183 0 0 0
4314 92 8 -1.0 -442.7197435657519 199.3236567162273 -25.890832942258044 0 0 0
128671 92 8 -1.0 -346.7320491848344 -61.713773984834575 -21.275270871025334 0 0 0
128559 92 8 -1.0 -182.54829355787555 -49.619580374002204 -24.839184298195732 0 0 -1
3668 92 8 -1.0 -224.45410464730168 201.20508149692844 -17.393908678991597 0 0 0
4505 92 7 1.0 -309.6087899064535 -32.585248660262735 -11.960171579456638 0 0 1
4001 92 7 1.0 -290.15887415869275 36.112579181342156 -2.0195121285430986 1 0 1
128508 92 8 -1.0 27.11770045754651 161.6295798290979 0.8413541852720304 0 0 0
4269 92 7 1.0 -12.152471207711953 211.88934789534244 3.279919273190347 0 0 0
3761 92 7 1.0 -349.29889778266084 -52.463458616088275 17.663338283760464 0 0 0
4698 92 8 -1.0 -323.81896066165206 214.67898525219314 15.036741259134224 1 0 0
4748 92 8 -1.0 43.73470637407483 11.897968414026279 21.826510076197682 0 0 0
128482 92 8 -1.0 32.073908207351174 39.36610564761805 23.684050099923564 0 0 -1
4804 92 8 -1.0 44.231558634015244 48.917855180948536 23.59565057278302 0 0 0
126499 94 14 0.33 49.64304333585914 49.60084817668696 24.882028435378377 0 0 0
4685 92 7 1.0 -198.1798294459512 206.02174288228443 19.10055316118426 0 -1 1
3954 92 8 -1.0 41.09713943443937 29.18210794767962 26.167564959711367 0 0 0
126353 94 13 -0.3 46.62015581688801 33.69583606463977 29.848414796511655 0 0 0
126354 94 14 0.33 46.988887699655024 33.628133958801634 28.929334101976583 0 0 0
126356 94 14 0.33 45.58900245248016 33.717838756614206 29.83208251482388 0 0 0
126355 94 14 0.33 46.89166797015426 32.800301259678236 30.214492470921993 0 0 0
4102 92 8 -1.0 38.12305625183009 37.26706053105812 29.42473393404363 0 0 0
126369 94 13 -0.3 41.688468716916375 37.53018821871738 30.357702836238644 0 0 0
126368 94 11 0.31 43.16632009568486 37.54193842125574 30.239701460575034 0 0 0
126372 94 14 0.33 41.36793034355188 38.439324640085765 30.702333725858907 0 0 0
126370 94 14 0.33 41.30112567270293 37.24294929130462 29.459929462183243 0 0 0
126371 94 14 0.33 41.50398366739878 36.847469938696186 31.038339288492573 0 0 0
126387 94 14 0.33 39.181270157602164 40.528226951819775 30.62215812135411 0 0 0
126361 94 13 -0.3 48.452777873094924 39.67748718027061 29.240924070690838 0 0 0
126366 94 11 0.0 45.65961133908308 38.00677032518879 30.259890513826885 0 0 0
126360 94 11 0.31 48.08551796406886 38.680625457442495 30.335212563770387 0 0 0
126359 94 12 0.0 46.93566814540056 38.25102397011312 31.131398307621016 0 0 0
126352 94 11 0.31 47.106743461160484 34.949099306067474 30.617129250492994 0 0 0
126367 94 12 0.0 44.36479366160591 38.04029563507415 31.085312772795767 0 0 0
126363 94 14 0.33 49.46774606360641 39.70907147321994 29.10178922836545 0 0 0
126364 94 14 0.33 47.84297267577318 39.32461259098473 28.501625905131224 0 0 0
4252 92 8 -1.0 41.41361140734613 40.58743159722554 26.750578545220495 0 0 0
126388 94 14 0.33 40.455564584850244 41.72965453686143 30.182182938835382 0 0 0
126386 94 14 0.33 38.92654068664073 42.087798203615925 30.540232255564103 0 0 0
126392 94 11 0.31 42.59776819205506 43.99025976225508 30.151947710028416 0 0 0
126385 94 13 -0.3 39.64651726081731 41.41732020926161 30.73033711581758 0 0 0
126393 94 13 -0.3 43.14652541113489 44.31172923454355 28.7845969762569 0 0 0
126394 94 14 0.33 43.56694908645854 43.46757501240667 28.409339197696656 0 0 0
126395 94 14 0.33 42.36726606921672 44.733046839316906 28.258639751874053 0 0 0
126396 94 14 0.33 43.91583503961282 45.00171424587589 28.810824031228446 0 0 0
126362 94 14 0.33 48.147918688950355 40.59033461246205 29.582279106655186 0 0 0
126425 94 13 -0.3 35.47907393582115 52.31821007523182 30.1139243789397 0 0 0
126427 94 14 0.33 34.61146411010032 51.777022141598756 29.9867911195133 0 0 0
126426 94 14 0.33 36.22215078231979 51.852683798442676 29.635439462655754 0 0 0
126412 94 14 0.33 36.331769191511896 49.542564327526144 30.136719791856112 0 0 0
126411 94 14 0.33 36.738231429777976 48.081419396323405 29.606603387210946 0 0 0
126409 94 13 -0.3 37.08993809632536 49.043577276404655 29.73921108929936 0 0 0
126410 94 14 0.33 37.31311657896584 49.53762740810864 28.91247355907209 0 0 0
4474 92 8 -1.0 40.68495749347815 46.87550902708236 26.58892203627105 0 0 0
126483 94 14 0.33 41.752610899463676 50.374236192343204 28.449873845160365 0 0 0
126484 94 14 0.33 41.90693198579379 48.72313858765051 28.539591447494047 0 0 0
126481 94 13 -0.3 42.165319501091325 49.58268877082169 27.97428395712696 0 0 0
126408 94 11 0.31 38.3640497734543 48.88405210078763 30.525365425233865 0 0 0
126482 94 14 0.33 41.78737350106957 49.55110198366449 27.023188643985566 0 0 0
126480 94 11 0.31 43.60873476688046 49.765328812308844 28.10704570777733 0 0 0
126494 94 11 0.0 47.930188747887 48.39324100949039 28.778803467358383 0 0 0
126479 94 12 0.0 44.98364292948415 49.93566818550709 28.70271524901293 0 0 0
126486 94 11 0.0 45.43332635803403 48.64903499980283 29.396996162988053 0 0 0
126495 94 12 0.0 48.32881861341885 49.50081958101845 27.851940422719938 0 0 0
126478 94 11 0.0 45.23586026176237 51.177283197831265 29.59476810368636 0 0 0
126504 94 11 0.31 47.84297768901662 52.57693218615893 26.928233854744555 0 0 0
126506 94 14 0.33 46.2988607124214 52.88306027851115 28.353060756305066 0 0 0
126487 94 12 0.0 46.865318668772645 48.485571119342644 29.891149810435675 0 0 0
126502 94 11 0.0 48.83232222225375 50.81051845231768 28.572571100319163 0 0 0
126503 94 12 0.0 49.041511622803554 52.08551093580452 27.76956746358781 0 0 0
126496 94 11 0.31 49.26436328385755 49.032186443344756 26.778183798866966 0 0 0
126471 94 12 0.0 44.500053446888025 51.60336698014964 30.969554182493873 0 0 0
126488 94 11 0.31 46.99569522946551 47.20771099084696 30.739240518117622 0 0 0
126428 94 14 0.33 35.27868790598894 53.20234627545911 29.700133243935987 0 0 0
128597 92 8 -1.0 36.86803591721383 54.79738928218322 27.341499590292212 -1 0 -1
126418 94 14 0.33 40.99465034135277 54.678615071089816 30.39751343758218 0 0 0
3710 92 8 -1.0 42.52774098976668 53.838710086726586 27.095052320622873 0 0 0
126419 94 14 0.33 41.682378020029844 53.22507674035407 30.701589206744472 0 0 0
126417 94 13 -0.3 40.88474673817968 53.70786518855666 30.323119132003413 0 0 0
126420 94 14 0.33 40.69905619036282 53.32579270071326 29.371367683852636 0 0 0