LAMMPS data file via write_data, version 22 Aug 2018, timestep = 62500000

6453 atoms
15 atom types
2569 bonds
20 bond types
3168 angles
34 angle types
1372 dihedrals
30 dihedral types
270 impropers
1 improper types

-4.5000000000000000e+02 5.5000000000000000e+02 xlo xhi
-4.5000000000000000e+02 5.5000000000000000e+02 ylo yhi
-4.5000000000000000e+02 5.5000000000000000e+02 zlo zhi

Masses

1 14.027
2 12.011
3 15.999
4 1.008
5 12.011
6 15.999
7 22.99
8 35.453
9 196.967
10 15.035
11 14.027
12 13.019
13 14.007
14 1.008
15 35.453

Atoms # full

3978 92 8 -1.0000000000000000e+00 -2.7961730885671528e+02 -3.1126702348229014e+02 -4.4969908929818604e+02 0 0 0
729 92 7 1.0000000000000000e+00 -3.2077320062244752e+02 -1.9877556999587185e+02 -4.3945573595221077e+02 7 4 0
4218 92 8 -1.0000000000000000e+00 -1.0030596999269632e+02 -1.5918759759941625e+02 -4.3969403035667068e+02 -4 -3 2
4087 92 7 1.0000000000000000e+00 1.4410796868827193e+01 -4.1778660880210015e+02 -4.2125286556688411e+02 -1 -1 1
3968 92 8 -1.0000000000000000e+00 -6.5659862747695897e+01 -3.7194726012309582e+02 -4.0361016902406283e+02 -1 2 -2
3707 92 7 1.0000000000000000e+00 -3.3275743982906135e+02 -1.3103925374909795e+02 -4.0273902421230332e+02 0 -3 -2
50 92 7 1.0000000000000000e+00 -6.0906118102676409e+01 -3.5956744837989419e+02 -3.9962921035547390e+02 3 3 1
3744 92 8 -1.0000000000000000e+00 -1.8406995375975879e+02 -1.2527307224126719e+02 -3.9485194086265676e+02 1 1 -4
4299 92 7 1.0000000000000000e+00 -3.5309770365459985e+02 -1.1927861591258412e+02 -3.9480274193602082e+02 1 5 7
4378 92 8 -1.0000000000000000e+00 -3.0011663234982075e+02 -1.2012617943860955e+02 -3.9788596037479527e+02 1 1 1
4447 92 7 1.0000000000000000e+00 -2.9072129597622347e+02 -3.1051569958109729e+02 -3.8980490647351019e+02 0 -1 0
4244 92 8 -1.0000000000000000e+00 -3.4506539363963623e+02 -1.2602314755373428e+02 -3.8292173959204251e+02 -2 5 0
3678 92 8 -1.0000000000000000e+00 -5.6552696443202450e+01 -3.8450353137959041e+02 -3.7739659603869922e+02 -1 -1 -4
4098 92 8 -1.0000000000000000e+00 -2.7116123301195449e+02 -1.7091886371129965e+02 -3.8037732449968047e+02 -1 0 -2
1155 92 7 1.0000000000000000e+00 -3.8207332827102823e+02 -2.7320776484348670e+02 -3.7184186633441135e+02 1 -7 1
1496 92 7 1.0000000000000000e+00 -7.7845781214569797e+01 -3.0944101119610178e+02 -3.6790500961417229e+02 0 -2 3
4000 92 8 -1.0000000000000000e+00 -2.0835462045135426e+02 -4.3202912498449734e+02 -3.5984476617778154e+02 0 1 1
4599 92 7 1.0000000000000000e+00 -3.3718509712482410e+02 -2.3316120790658087e+02 -3.5400399000916343e+02 4 2 -2
440 92 7 1.0000000000000000e+00 -1.9225649538026229e+02 -2.2324106872925748e+02 -3.4144766900096312e+02 1 2 -4
4337 92 7 1.0000000000000000e+00 -1.8429970657743368e+02 -4.0005566840508601e+02 -3.3277932968146951e+02 2 1 2
3694 92 8 -1.0000000000000000e+00 -3.0054733743249727e+02 -3.0725240020020954e+02 -3.3554970058684040e+02 -1 -1 -2
4017 92 7 1.0000000000000000e+00 -7.4369232812140581e+01 -2.6295653493992239e+02 -3.2464633896607245e+02 -4 -2 -2
4400 92 8 -1.0000000000000000e+00 -2.6260988137938381e+02 -1.6688401853665258e+02 -3.1964818895120709e+02 -2 -1 1
4191 92 7 1.0000000000000000e+00 -3.3294949972466793e+02 -4.3800740249117905e+02 -3.1021045586567243e+02 0 1 0
4791 92 7 1.0000000000000000e+00 -7.3016546493632319e+01 -4.0651464925857789e+02 -3.1039038063214861e+02 -2 4 6
5389 92 15 -1.0000000000000000e+00 -1.3650061221986266e+02 -3.2962515762326649e+02 -3.0118561148701610e+02 0 -4 -4
5317 92 15 -1.0000000000000000e+00 -1.4014808391982385e+02 -1.7266652696210272e+02 -2.9867759789437196e+02 0 5 6
4430 92 8 -1.0000000000000000e+00 -2.3434884673723857e+01 -1.9974923401679811e+02 -2.9029492858928268e+02 4 -2 3
5637 92 15 -1.0000000000000000e+00 -3.8345298891089567e+02 -1.5787240783517015e+02 -2.9020579726608645e+02 0 4 6
4635 92 7 1.0000000000000000e+00 2.4309871133419804e+01 -3.9617598108471179e+02 -2.8678478705730691e+02 1 2 4
1477 92 7 1.0000000000000000e+00 -2.4187343348361148e+02 -3.3402347214840512e+02 -2.8655044479686796e+02 8 2 5
3869 92 7 1.0000000000000000e+00 -2.4487270688966814e+02 -3.9594198718623818e+02 -2.7727386190996941e+02 3 2 -3
3987 92 7 1.0000000000000000e+00 -2.1194546662041407e+02 -3.7834180665388993e+02 -2.7629047622230127e+02 -1 -1 -4
5933 92 15 -1.0000000000000000e+00 -3.0147483115193825e+02 -2.8975450397029869e+02 -2.7415353664625854e+02 1 -4 -7
4478 92 8 -1.0000000000000000e+00 -8.7120591113894292e+01 -2.3237336167061420e+02 -2.7189438097464233e+02 0 1 1
1087 92 7 1.0000000000000000e+00 -3.2421408055240869e+02 -2.0768146536239476e+02 -2.7157604738302211e+02 3 0 3
900 92 7 1.0000000000000000e+00 -3.4211681605902754e+02 -3.9997962006142001e+02 -2.6489155898844882e+02 4 5 0
4721 92 7 1.0000000000000000e+00 -9.8008784306922763e+01 -1.2490448225921223e+02 -2.6609971943626670e+02 4 -1 2
4654 92 8 -1.0000000000000000e+00 -3.0534571385990392e+02 -3.2139115262334440e+02 -2.5748311578816993e+02 -1 0 0
4117 92 7 1.0000000000000000e+00 -1.8185064295865968e+02 -1.2808507481978538e+02 -2.5917127152760395e+02 1 3 -2
678 92 7 1.0000000000000000e+00 -4.4978223325551681e+02 -1.6764272267576530e+02 -2.5114717549769279e+02 -3 2 1
3706 92 8 -1.0000000000000000e+00 -4.3654794530628925e+02 -4.2514891900564896e+02 -2.4004454115044550e+02 -2 -1 -5
4826 92 8 -1.0000000000000000e+00 -4.1023910885237251e+02 -3.4355055199457416e+02 -2.4136840801640750e+02 2 4 4
4032 92 8 -1.0000000000000000e+00 -2.2058872575451701e+02 -1.5925963531206955e+02 -2.4302986504579104e+02 -1 -4 0
4013 92 7 1.0000000000000000e+00 2.4286068328857187e+01 -1.6764271569636247e+02 -2.2911005741908633e+02 -2 4 -3
4019 92 7 1.0000000000000000e+00 -1.9854902772325067e+02 -4.3767702366965642e+02 -2.0748981886374679e+02 -1 -1 -4
4315 92 7 1.0000000000000000e+00 -2.8227705388785944e+02 -4.1017976586552311e+02 -2.0769609922243805e+02 -3 -1 1
5101 92 15 -1.0000000000000000e+00 2.4908909600777218e+01 -3.5642352007660361e+02 -2.0770836125899893e+02 0 1 -8
5925 92 15 -1.0000000000000000e+00 -3.2620048642803812e+02 -3.1125133104587798e+02 -2.0557894647553425e+02 1 -2 2
355 92 7 1.0000000000000000e+00 1.7737718652543503e+01 -2.9486952756459368e+02 -2.0527958078485304e+02 7 -6 3
3885 92 7 1.0000000000000000e+00 -2.3090403419171656e+02 -1.6471515114510041e+02 -2.0071810706222720e+02 3 7 -3
4383 92 7 1.0000000000000000e+00 -3.4388144969278659e+02 -1.5171536088695240e+02 -1.9688519091705408e+02 5 0 2
4301 92 7 1.0000000000000000e+00 -9.0422873745334329e+01 -3.7364132198110104e+02 -1.9196356629109908e+02 -3 1 3
4554 92 8 -1.0000000000000000e+00 -3.7792194817135004e+02 -3.1764726667509024e+02 -1.8998515951772848e+02 -3 2 0
6037 92 15 -1.0000000000000000e+00 -1.4004591046687725e+02 -3.8528553028644774e+02 -1.8558465400900701e+02 2 -1 2
4463 92 7 1.0000000000000000e+00 -7.8672434903741845e+01 -3.8202522253318978e+02 -1.8712755066869158e+02 -3 7 0
4853 92 7 1.0000000000000000e+00 -6.4471854443852322e+01 -2.3060311473590644e+02 -1.8313923198295595e+02 -1 5 3
4688 92 8 -1.0000000000000000e+00 -1.6348856686603554e+01 -1.8151866020776220e+02 -1.6924774369638970e+02 -2 -1 1
4749 92 7 1.0000000000000000e+00 -5.5753777268362072e+01 -1.7642393432219984e+02 -1.7385825048155922e+02 4 -7 4
5997 92 15 -1.0000000000000000e+00 -4.6011602905963031e+01 -1.4541793725765959e+02 -1.7401851987077225e+02 5 4 2
3870 92 8 -1.0000000000000000e+00 4.4653914443250123e+01 -1.3704849557748551e+02 -1.6914143777895731e+02 -1 0 -3
4527 92 7 1.0000000000000000e+00 -2.9238135008089949e+02 -4.1573524160330146e+02 -1.5578832001054388e+02 -1 6 7
3778 92 8 -1.0000000000000000e+00 -1.0773020039406669e+02 -3.5255082565518768e+02 -1.5170331282926622e+02 -1 -4 -3
884 92 7 1.0000000000000000e+00 -3.2307477728692811e+02 -2.8808495875402616e+02 -1.5165271156316626e+02 3 1 -4
4724 92 8 -1.0000000000000000e+00 2.3190160637867493e+01 -2.8313206189077579e+02 -1.5391222890432564e+02 -2 2 -1
4642 92 8 -1.0000000000000000e+00 -3.8137824588145418e+02 -2.4585841879697244e+02 -1.5230228954434028e+02 0 0 3
3740 92 8 -1.0000000000000000e+00 -3.9521160639150202e+02 -2.4180392686160371e+02 -1.5511432565855264e+02 -3 0 -3
3775 92 7 1.0000000000000000e+00 -1.9744674271282125e+02 -4.2600539398265562e+02 -1.3681747272493521e+02 1 -6 3
323 92 7 1.0000000000000000e+00 -1.7769538107882053e+02 -3.0118113668467470e+02 -1.3510542699929110e+02 1 -1 4
4138 92 8 -1.0000000000000000e+00 -1.0911591277442399e+02 -2.4225891200316647e+02 -1.3523191706856991e+02 -1 -3 2
4124 92 8 -1.0000000000000000e+00 -3.2247160598931441e+02 -4.4784961331725702e+02 -1.2800095099159606e+02 2 2 -1
4766 92 8 -1.0000000000000000e+00 -4.3356682090217475e+00 -3.1623616764321378e+02 -1.2847248475149220e+02 -1 1 0
4169 92 7 1.0000000000000000e+00 -5.5978850523771762e+00 -2.0409933463525985e+02 -1.2354449247355581e+02 0 1 2
3934 92 8 -1.0000000000000000e+00 -1.1338217931671856e+02 -3.7918967030767328e+02 -1.1501008254324701e+02 -4 1 -1
3797 92 7 1.0000000000000000e+00 -2.3262398362995947e+02 -3.6684650332393801e+02 -1.1826983411071494e+02 3 2 1
4769 92 7 1.0000000000000000e+00 -3.0749282112410305e+02 -2.3817355768573464e+02 -1.1586697995899799e+02 -1 -5 1
4725 92 7 1.0000000000000000e+00 -1.6338149681590110e+02 -1.2742170908775043e+02 -1.1436078695393412e+02 -1 3 2
4559 92 7 1.0000000000000000e+00 -3.1095707542211704e+02 -4.3400608104652150e+02 -1.0857662514452245e+02 -1 1 2
4474 92 8 -1.0000000000000000e+00 -2.4536699912239249e+02 -4.3379825315916725e+02 -1.0144225349243537e+02 -2 3 3
4552 92 8 -1.0000000000000000e+00 -2.6454915602024988e+02 -1.7648840441038251e+02 -1.0087984908779345e+02 2 -1 -1
4063 92 7 1.0000000000000000e+00 -7.6059541821473204e+01 -1.7832249109157937e+02 -1.0451358041124456e+02 -4 -2 -1
4097 92 7 1.0000000000000000e+00 -2.4379463702764750e+02 -4.3312569292275259e+02 -9.7248524247197565e+01 1 4 -4
697 92 7 1.0000000000000000e+00 -9.9573203877231634e+01 -4.2561357524991769e+02 -9.8603185785259939e+01 7 0 -1
16 92 7 1.0000000000000000e+00 1.5193981316059812e+01 -3.7713418408747663e+02 -9.9723789028380196e+01 4 -3 1
3795 92 7 1.0000000000000000e+00 1.1665150860637896e+01 -3.5235520792483464e+02 -9.5783031172375360e+01 2 -1 -2
5765 92 15 -1.0000000000000000e+00 3.9695434728885630e+01 -3.1594254193156064e+02 -9.3696115112991848e+01 -1 5 4
5341 92 15 -1.0000000000000000e+00 -4.3776958423871463e+02 -3.2028021091259035e+02 -8.2138617746291544e+01 0 -3 -7
6333 92 15 -1.0000000000000000e+00 -1.8275601897454186e+02 -1.2344656687255620e+02 -8.5730095571402046e+01 0 -4 -8
4470 92 8 -1.0000000000000000e+00 -5.2422046170447572e+01 -2.3731079189944637e+02 -7.6775087438836962e+01 -4 0 -1
1443 92 7 1.0000000000000000e+00 -4.2585371477918324e+02 -2.6545201383610652e+02 -5.9097252715966157e+01 -4 3 2
4062 92 8 -1.0000000000000000e+00 -3.4701206832526321e+02 -1.9628552141404938e+02 -6.2269978171582018e+01 -3 -1 -2
3686 92 8 -1.0000000000000000e+00 -1.2630942236846747e+02 -1.8345600680490548e+02 -5.2304424465930310e+01 -1 -5 0
5661 92 15 -1.0000000000000000e+00 -3.5761031693584391e+02 -1.7432081228618617e+02 -5.4718097269910210e+01 -1 -2 -6
4342 92 8 -1.0000000000000000e+00 -2.0023946565718450e+02 -1.2689300166734996e+02 -5.4832053851568801e+01 0 -3 -2
4347 92 7 1.0000000000000000e+00 -4.3395825900348575e+02 -2.5466148410980531e+02 -4.4855682322224204e+01 1 -1 5
4458 92 8 -1.0000000000000000e+00 -3.0934496091798405e+02 -1.8742456034029692e+02 -4.7218605053508263e+01 -4 2 -2
32 92 7 1.0000000000000000e+00 -3.9820749659716961e+02 -3.3791133643562125e+02 -4.1494403071633883e+01 -3 -5 5
5685 92 15 -1.0000000000000000e+00 -8.4344843774094713e+01 -2.7417191821206933e+02 -4.0860157119036593e+01 0 -5 -1
4348 92 8 -1.0000000000000000e+00 -3.3838621565234256e+01 -3.2504728330342726e+02 -3.4721900313305312e+01 1 0 1
5957 92 15 -1.0000000000000000e+00 4.8277492622848769e+01 -2.9397784363326991e+02 -3.3187618179153738e+01 -1 2 6
3717 92 7 1.0000000000000000e+00 -1.0955408180384376e+02 -4.0548896717302154e+02 -2.8188168685032277e+01 2 6 -1
3962 92 8 -1.0000000000000000e+00 -2.1722917934860291e+02 -1.2792769422170579e+02 -2.5770133644061680e+01 0 0 -2
3928 92 8 -1.0000000000000000e+00 -3.7638689483073352e+02 -3.5191391467993225e+02 -2.0150919487242334e+01 2 -1 0
4473 92 7 1.0000000000000000e+00 -1.3131966496450241e+02 -3.0930785376768591e+02 -1.8578800134872246e+01 -1 2 1
6109 92 15 -1.0000000000000000e+00 -2.0345758680141901e+02 -2.8659753994607399e+02 -1.5800056507004939e+01 2 -4 -4
3669 92 7 1.0000000000000000e+00 -7.0009790367191940e+01 -4.3181791077768020e+02 -1.0615010091142931e+01 -3 -2 -3
4399 92 7 1.0000000000000000e+00 -1.3261393491813325e+02 -2.0798588626607503e+02 -1.0691350247270082e+01 0 -1 1
3770 92 8 -1.0000000000000000e+00 -3.4287895398399593e+02 -1.1744717419312315e+02 -1.1042432429288295e+01 1 0 -1
4822 92 8 -1.0000000000000000e+00 -1.2933328419257469e+02 -3.9591381256006287e+02 -3.5516830294244888e+00 -1 1 1
373 92 7 1.0000000000000000e+00 -4.0077295767942303e+02 -3.7025547052053031e+02 -5.2092051956645511e+00 2 2 0
4177 92 7 1.0000000000000000e+00 -2.9710016266771157e+02 -1.4505022495702971e+02 -3.6011998699775285e+00 -1 0 -2
6005 92 15 -1.0000000000000000e+00 -9.9405807378211847e+01 -1.2533250840308152e+02 -2.3373960568831960e+00 -2 5 5
4352 92 8 -1.0000000000000000e+00 -8.8657880427885289e+01 -2.9484598633965805e+02 7.5899287744489430e-01 -1 2 1
4925 92 15 -1.0000000000000000e+00 -1.7699893188062561e+02 -1.6275971154977120e+02 1.1413456535493307e+00 0 -5 -10
423 92 7 1.0000000000000000e+00 -1.6155136156625304e+02 -1.6670962481874315e+02 2.8722843549143451e+00 0 0 -1
4263 92 7 1.0000000000000000e+00 -2.7000830947318912e+02 -2.4513293662068432e+02 9.4984911190237167e+00 -2 -4 1
4051 92 7 1.0000000000000000e+00 -4.1106376319420440e+02 -4.3566196111366293e+02 1.4042603165639932e+01 0 0 0
3732 92 8 -1.0000000000000000e+00 -1.9317420714954943e+02 -4.2222400538081075e+02 1.4551093317302762e+01 0 -1 -3
3961 92 7 1.0000000000000000e+00 -3.7566634361318853e+02 -4.1352276911810287e+02 1.6001057741931849e+01 0 -1 -2
4472 92 8 -1.0000000000000000e+00 -3.5957338841624022e+02 -4.0345086218741420e+02 1.5845127248830570e+01 1 1 0
730 92 7 1.0000000000000000e+00 -9.5722148074733411e+01 -3.9099856800350744e+02 2.6929272994786437e+01 2 -1 -2
4731 92 7 1.0000000000000000e+00 -1.4333870342231904e+01 -4.0330628052431445e+02 3.2886137858745585e+01 -4 1 1
3942 92 8 -1.0000000000000000e+00 -2.7804670986398509e+02 -2.6287723267792472e+02 3.1774862931512917e+01 -5 -1 0
4494 92 8 -1.0000000000000000e+00 -3.2153237459090889e+02 -3.0017050407843567e+02 4.3481816744621000e+01 -3 -3 -1
4170 92 8 -1.0000000000000000e+00 -1.3370247598361651e+01 -1.1857554010143139e+02 3.9405518469961066e+01 -2 -1 -2
4607 92 7 1.0000000000000000e+00 -4.8449655167497223e+00 -4.0882324464638720e+02 5.5611216558658640e+01 4 5 0
4949 92 15 -1.0000000000000000e+00 -3.3852403705669451e+02 -1.9775018262751138e+02 5.4993279678966942e+01 -1 6 8
4364 92 8 -1.0000000000000000e+00 -1.6506158396163866e+02 -1.7397075980510246e+02 5.3843252908579721e+01 -3 3 -1
985 92 7 1.0000000000000000e+00 -1.2749711116124659e+02 -1.3476380378716385e+02 6.0833339714412503e+01 5 5 0
4418 92 8 -1.0000000000000000e+00 -4.2061455248421322e+02 -1.2326040089493421e+02 6.4749580213241885e+01 -2 -5 1
695 92 7 1.0000000000000000e+00 -7.2648884192033861e+01 -4.1260500478618945e+02 7.0837923349741317e+01 4 -2 1
3926 92 8 -1.0000000000000000e+00 -2.2662154439612641e+02 -2.2929291927013082e+02 7.2652292958661150e+01 -1 -1 -6
3815 92 7 1.0000000000000000e+00 -6.1380743423885662e+01 -1.4505794528495630e+02 7.1137342020222022e+01 3 -1 -2
1360 92 7 1.0000000000000000e+00 -1.1165988540170549e+02 -4.3873183928167612e+02 8.9940100596307317e+01 1 1 3
4750 92 8 -1.0000000000000000e+00 -9.2760772089025465e+01 -3.8488038784242536e+02 9.2083413363664775e+01 1 0 1
5405 92 15 -1.0000000000000000e+00 -3.4075684066620073e+02 -2.8130816948622180e+02 9.7849934980625974e+01 3 0 0
4697 92 7 1.0000000000000000e+00 -4.1507425484515340e+02 -2.0064949923715929e+02 9.5669177320080095e+01 3 3 1
4585 92 7 1.0000000000000000e+00 6.3598297986627139e-01 -1.3946326577003447e+02 1.0583316740918642e+02 0 5 1
4321 92 7 1.0000000000000000e+00 -2.6929414386203291e+02 -2.9680828559291268e+02 1.0912091081966892e+02 4 -1 0
5013 92 15 -1.0000000000000000e+00 -1.1124079507434466e+02 -2.7412524520676493e+02 1.1390053253124886e+02 -1 5 7
4228 92 8 -1.0000000000000000e+00 -3.9801396200237833e+00 -2.2724330545585715e+02 1.1608044098687311e+02 -1 4 1
4239 92 7 1.0000000000000000e+00 -4.5975226811959704e+00 -1.4630940970726081e+02 1.2287061392918692e+02 3 0 -1
4846 92 8 -1.0000000000000000e+00 -6.0462381238694995e+01 -3.5047184180053205e+02 1.2679118124194609e+02 -1 2 4
4450 92 8 -1.0000000000000000e+00 -3.8763847841525876e+02 -1.5456509885671505e+02 1.2631226617630459e+02 -1 -1 1
3979 92 7 1.0000000000000000e+00 -4.4876753833927955e+02 -2.3098996753335521e+02 1.3442086341823165e+02 -4 -1 2
4465 92 7 1.0000000000000000e+00 -4.2227830055172049e+01 -2.6956620324004399e+02 1.4173146558652672e+02 -3 4 5
1189 92 7 1.0000000000000000e+00 -3.7980094107702246e+02 -1.6855540715775325e+02 1.4502309310230385e+02 -1 4 2
4071 92 7 1.0000000000000000e+00 -8.2709030170846731e+01 -4.2566156803163466e+02 1.6157683065472057e+02 2 0 2
4262 92 8 -1.0000000000000000e+00 -4.1764963433324414e+02 -3.4263148069492263e+02 1.6079257391325675e+02 0 -3 0
5221 92 15 -1.0000000000000000e+00 -3.2460985182838380e+02 -1.6899552425153681e+02 1.5850144128568948e+02 -2 3 8
3897 92 7 1.0000000000000000e+00 -3.0250049794187163e+02 -2.5018803818107946e+02 1.6564160638800121e+02 -4 -4 -4
3920 92 8 -1.0000000000000000e+00 -1.1716233614732917e+02 -2.1300677159631834e+02 1.6784189014546794e+02 -5 -4 1
4613 92 7 1.0000000000000000e+00 -2.6667046009928885e+02 -1.8835311121498074e+02 1.6257703805945371e+02 0 0 3
1241 92 7 1.0000000000000000e+00 -2.1605776243139863e+02 -1.6771441314589134e+02 1.6998485385812577e+02 3 -5 -1
3914 92 8 -1.0000000000000000e+00 -3.3631032926782160e+02 -3.6560824113914805e+02 1.7548018038694354e+02 3 -3 2
3675 92 7 1.0000000000000000e+00 2.5099043002152644e+01 -3.8597828765704378e+02 1.8684484931008990e+02 -1 -1 -1
3672 92 8 -1.0000000000000000e+00 3.7645794349715850e+01 -2.8752506128478859e+02 1.8512730491018851e+02 0 0 -7
4214 92 8 -1.0000000000000000e+00 -1.8855317380151078e+02 -2.5398081243363382e+02 1.9189737027490605e+02 1 -1 2
5605 92 15 -1.0000000000000000e+00 -1.1435838562308226e+02 -2.5358208011300096e+02 1.9129478980809640e+02 0 8 6
4789 92 7 1.0000000000000000e+00 -3.8900342446842251e+02 -3.6329067515966091e+02 1.9702611844899133e+02 4 0 2
4070 92 8 -1.0000000000000000e+00 -3.2623632895327154e+02 -4.1792524276642615e+02 2.0341015553654617e+02 1 2 -3
4340 92 8 -1.0000000000000000e+00 -2.8726734517674402e+02 -2.4464029023646214e+02 2.0243152063793465e+02 -3 0 -2
3917 92 7 1.0000000000000000e+00 9.6255313320418541e+00 -3.5427087894496032e+02 2.1174301695106971e+02 0 5 0
3668 92 8 -1.0000000000000000e+00 -3.1418944530249183e+02 -3.0481975933081134e+02 2.1038738757324657e+02 -2 -3 0
6021 92 15 -1.0000000000000000e+00 -2.6516183656878735e+02 -1.6021533571298886e+02 2.1055402116206184e+02 0 2 5
4366 92 8 -1.0000000000000000e+00 -1.5170161606026150e+02 -1.5493098071581105e+02 2.0859299563361748e+02 1 0 1
3911 92 7 1.0000000000000000e+00 -4.1111450114354278e+02 -3.5831085570607343e+02 2.1473203696215643e+02 3 -5 -3
5309 92 15 -1.0000000000000000e+00 -9.5446591798067644e+00 -3.5176443557427876e+02 2.1401341378324241e+02 -1 4 -7
4691 92 7 1.0000000000000000e+00 -3.1037443236367153e+02 -2.5053969319796440e+02 2.1284066248632641e+02 -6 0 -4
6253 92 15 -1.0000000000000000e+00 -1.8889902332693325e+02 -2.5269186662343958e+02 2.1431607999081376e+02 0 -2 -4
4272 92 8 -1.0000000000000000e+00 -7.2257952134711417e+01 -4.3480143386253349e+02 2.2064245392331188e+02 1 0 -2
1190 92 7 1.0000000000000000e+00 -3.0653881229280557e+02 -4.1479803971001434e+02 2.2000867361860210e+02 3 -1 4
4551 92 7 1.0000000000000000e+00 -6.3906998858226579e+01 -1.9393158853647273e+02 2.2206886814199689e+02 2 1 3
4103 92 7 1.0000000000000000e+00 -3.5272144044846215e+02 -1.9102260206384980e+02 2.2643861974132005e+02 0 4 -3
3750 92 8 -1.0000000000000000e+00 -3.6075235775856220e+02 -4.4546254774594451e+02 2.3495947609596107e+02 -2 -1 -3
4432 92 8 -1.0000000000000000e+00 -2.8175224865386593e+02 -3.3091146260420936e+02 2.3519594105989006e+02 4 -1 3
4997 92 15 -1.0000000000000000e+00 -3.7915925066621796e+01 -3.0624728226453675e+02 2.3375507680595283e+02 -1 4 7
3656 92 8 -1.0000000000000000e+00 -2.6840665194247362e+02 -1.6919596591802443e+02 2.3424264716725867e+02 -3 -2 -3
4519 92 7 1.0000000000000000e+00 -1.4946739658671828e+02 -3.1765893540357382e+02 2.3813390970859538e+02 -4 4 0
4488 92 8 -1.0000000000000000e+00 -1.3792886882904440e+02 -2.7012770041395231e+02 2.6160126251815149e+02 3 2 0
3901 92 7 1.0000000000000000e+00 -2.5252652546304699e+02 -1.6469385867572205e+02 2.5905998507659626e+02 0 -1 -3
3995 92 7 1.0000000000000000e+00 -2.6212508237969831e+02 -2.9240182341722567e+02 2.6490480716704536e+02 1 2 -1
4649 92 7 1.0000000000000000e+00 -1.1703845445144241e+02 -1.4952047721548377e+02 2.6641433496019829e+02 3 -3 2
3758 92 8 -1.0000000000000000e+00 -1.0229099293342490e+02 -1.5135317103344002e+02 2.6604228641308657e+02 1 -2 -3
4136 92 8 -1.0000000000000000e+00 -4.2810607507760034e+02 -3.0910589483092332e+02 2.7341966338775109e+02 -1 -6 1
408 92 7 1.0000000000000000e+00 -4.2248464802247059e+02 -4.4022658820559622e+02 2.8080428308188391e+02 3 -1 2
865 92 7 1.0000000000000000e+00 -1.4413357083838190e+02 -3.8575994214510013e+02 2.7901179474965858e+02 6 2 -1
5357 92 15 -1.0000000000000000e+00 -2.8279842451942523e+02 -2.7304689169670149e+02 2.8108048167015721e+02 1 -3 -8
254 92 7 1.0000000000000000e+00 -4.2244805226813121e+01 -2.3487886109977183e+02 2.7534488351669000e+02 0 5 -2
5445 92 15 -1.0000000000000000e+00 -2.8438144028383476e+02 -2.9218494055844633e+02 2.9167522297079358e+02 2 4 1
3874 92 8 -1.0000000000000000e+00 1.8637172779649764e+00 -2.4502748065552839e+02 2.9356975631603001e+02 2 0 -3
6013 92 15 -1.0000000000000000e+00 -1.7839377615772932e+02 -1.7451866062848606e+02 2.9112865558856004e+02 2 -5 -5
4362 92 8 -1.0000000000000000e+00 -1.4604610976294148e+02 -3.8751136503134927e+02 2.9671068343946450e+02 -3 2 0
4278 92 8 -1.0000000000000000e+00 -3.9180036854264029e+02 -2.0073560759511463e+02 2.9973480812587746e+02 -4 -2 -2
4486 92 8 -1.0000000000000000e+00 -3.7635340927276717e+00 -2.6464510514363320e+02 3.0607345079497981e+02 -1 -1 -2
4529 92 7 1.0000000000000000e+00 4.5630234607001299e+01 -2.3586386845548876e+02 3.0410539423794870e+02 0 -3 2
4049 92 7 1.0000000000000000e+00 -3.7489692368607291e+02 -1.2148260089274777e+02 3.0163542133612691e+02 -1 1 1
3873 92 7 1.0000000000000000e+00 2.7649826393426928e+00 -2.6308199108741553e+02 3.0694509385815536e+02 1 7 -2
901 92 7 1.0000000000000000e+00 -3.7723683029167972e+02 -2.5717736141990321e+02 3.0731199621666462e+02 3 3 -2
4845 92 7 1.0000000000000000e+00 -1.5197239912939332e+02 -4.4209489273644294e+02 3.1253529724546036e+02 2 4 2
3755 92 7 1.0000000000000000e+00 -1.1924697017831409e+02 -1.8882261138327215e+02 3.1694093994632971e+02 1 0 -2
4129 92 7 1.0000000000000000e+00 -1.8244825320350876e+02 -1.2952692207644600e+02 3.1772205236829751e+02 -1 6 0
3910 92 8 -1.0000000000000000e+00 -7.0227200641643591e+01 -3.5128305870209442e+02 3.2477678549043003e+02 -1 -5 -3
3810 92 8 -1.0000000000000000e+00 -2.6649718000399452e+02 -3.3539884466634385e+02 3.2632404401606874e+02 -3 1 -2
5245 92 15 -1.0000000000000000e+00 -4.4226557364403044e+02 -2.3721382976469658e+02 3.2788968482281206e+02 1 -5 -10
1172 92 7 1.0000000000000000e+00 -3.6779922507292235e+02 -2.5972029523465613e+02 3.4021187078035399e+02 5 4 2
4053 92 7 1.0000000000000000e+00 -1.9645543385677993e+01 -2.5053028988527052e+02 3.4336116948882807e+02 1 0 2
4424 92 8 -1.0000000000000000e+00 2.9700788918144267e+00 -2.1993649587386142e+02 3.3793133879052834e+02 -1 1 0
918 92 7 1.0000000000000000e+00 -3.6213440121453623e+01 -1.1735285802428926e+02 3.5024488183334074e+02 3 0 -3
6173 92 15 -1.0000000000000000e+00 -4.1063652377681711e+02 -3.7193359447584345e+02 3.5889102573654736e+02 2 -3 -8
4336 92 8 -1.0000000000000000e+00 -9.2257270655335475e+01 -1.8860146202043316e+02 3.6123500629288270e+02 -1 2 0
4161 92 7 1.0000000000000000e+00 -1.0657545703755963e+02 -3.6305505604815147e+02 3.6391893154802625e+02 -3 -1 -2
4804 92 8 -1.0000000000000000e+00 -2.4884657343749714e+02 -1.6864495321749121e+02 3.6466781078681680e+02 2 1 0
576 92 7 1.0000000000000000e+00 -8.2909076753959539e+01 -1.2628470470360136e+02 3.6735411701234557e+02 3 -1 6
6221 92 15 -1.0000000000000000e+00 -3.7038575630322896e+02 -2.0261185541817321e+02 3.7400226706296132e+02 0 -2 -8
3677 92 7 1.0000000000000000e+00 -2.9536357902282884e+02 -1.9077923453148142e+02 3.7069030661457811e+02 5 3 -2
4332 92 8 -1.0000000000000000e+00 -4.3234823569505306e+02 -2.5039006004068472e+02 3.7781832922409296e+02 0 2 1
3931 92 7 1.0000000000000000e+00 -3.2727805276639788e+02 -2.0374816149131681e+02 3.7608299019374851e+02 -1 4 -1
4590 92 8 -1.0000000000000000e+00 -1.8592378301043090e+02 -3.9419663516308350e+02 3.8522584798825500e+02 -2 1 0
4112 92 8 -1.0000000000000000e+00 -1.0559129025454422e+02 -2.6743373364075882e+02 3.8415077334350417e+02 -1 2 0
4957 92 15 -1.0000000000000000e+00 -2.5983825145206754e+02 -1.2302343260602585e+02 3.9248381855984843e+02 0 -4 -9
186 92 7 1.0000000000000000e+00 -3.7766238848737123e+02 -4.4042948110946656e+02 3.9960182470426469e+02 4 -3 6
4173 92 7 1.0000000000000000e+00 -2.9475431263158055e+02 -2.2319733865576578e+02 4.0313756279124920e+02 -1 -2 -2
3733 92 7 1.0000000000000000e+00 -3.6851458301133709e+02 -3.0686444592778378e+02 4.0710719196812028e+02 -2 0 -4
424 92 7 1.0000000000000000e+00 -4.4498396550953032e+01 -1.3241842499771678e+02 4.0831966546289027e+02 3 -4 2
4182 92 8 -1.0000000000000000e+00 -2.8839955074747280e+02 -4.4289208231674127e+02 4.1286477322311100e+02 -3 -2 -2
4123 92 7 1.0000000000000000e+00 -3.4323478617590939e+02 -3.1254508460398131e+02 4.1559399882758800e+02 2 4 -4
3980 92 8 -1.0000000000000000e+00 -2.8270674059874960e+02 -2.4843081168823045e+02 4.1345559631749649e+02 0 1 -4
4410 92 8 -1.0000000000000000e+00 -3.2841216711085610e+02 -1.9088063117465785e+02 4.1870765766434499e+02 0 -3 -4
357 92 7 1.0000000000000000e+00 -4.4296643241331674e+02 -3.6493831307466900e+02 4.2957754308647048e+02 -3 4 -1
4800 92 8 -1.0000000000000000e+00 -1.0098828438041865e+02 -3.4111382754497532e+02 4.3078591216909564e+02 -3 0 0
4893 92 15 -1.0000000000000000e+00 -4.2703100393800111e+02 -1.7120058839426062e+02 4.2975612735057024e+02 2 -4 -5
4145 92 7 1.0000000000000000e+00 -3.5754173050115577e+02 -3.6965847822490309e+02 4.3486028679072973e+02 2 1 5
1222 92 7 1.0000000000000000e+00 -1.1380472948161284e+02 -4.1346369308303781e+02 4.4019977017336919e+02 -3 -4 7
644 92 7 1.0000000000000000e+00 4.0960322614909650e+01 -3.2047641010617036e+02 4.3996442349154290e+02 -1 4 3
4849 92 7 1.0000000000000000e+00 -4.1235673745390335e+02 -1.8208407935714121e+02 4.3893627321208857e+02 3 -1 6
3945 92 7 1.0000000000000000e+00 -1.2358132219287806e+02 -1.4153705588295193e+02 4.3928648595639748e+02 1 3 -1
6309 92 15 -1.0000000000000000e+00 4.5729542147945338e+01 -2.8101084310776537e+02 4.4942894453480238e+02 2 4 8
187 92 7 1.0000000000000000e+00 -2.5288304880614731e+02 -2.7100900202803530e+02 4.4682793252227538e+02 4 2 -2
4442 92 8 -1.0000000000000000e+00 -4.0336995185226942e+02 -1.3977152899160535e+02 4.5374939305707994e+02 3 1 1
916 92 7 1.0000000000000000e+00 -2.6978343419459532e+02 -2.1972318261310681e+02 4.6211040186766257e+02 -1 1 -2
4093 92 7 1.0000000000000000e+00 4.4174430096291410e+01 -1.6019817412626682e+02 4.5949061493659923e+02 -1 2 -2
271 92 7 1.0000000000000000e+00 2.9635114969563404e+01 -2.3237644632321889e+02 4.6637512576824656e+02 3 5 -2
850 92 7 1.0000000000000000e+00 -2.5791462843824153e+01 -1.2551165215965825e+02 4.7003486228120374e+02 -2 1 -2
4464 92 8 -1.0000000000000000e+00 -1.8233548052571629e+02 -4.1263045161010245e+02 4.8140335761844148e+02 -2 0 0
4358 92 8 -1.0000000000000000e+00 -3.4649523935829450e+02 -1.4473509894589384e+02 4.8503805058740090e+02 4 0 0
5437 92 15 -1.0000000000000000e+00 -3.2368268643729493e+02 -3.1729464161956685e+02 4.9253821537547299e+02 2 -3 -7
4453 92 7 1.0000000000000000e+00 -3.8663690083727846e+02 -4.0044370407918404e+02 4.9493792553391108e+02 -1 -2 0
5709 92 15 -1.0000000000000000e+00 -1.9224670260652778e+02 -4.1383363541845500e+02 5.0047347567870690e+02 -2 0 -4
3753 92 7 1.0000000000000000e+00 -2.2955369194587431e+02 -2.9195227042985846e+02 5.0455095999029891e+02 -2 -5 -8
3847 92 7 1.0000000000000000e+00 -1.7603126298617599e+02 -4.2309726478112515e+02 5.1176217904940103e+02 -2 1 0
4534 92 8 -1.0000000000000000e+00 -3.2010779245819072e+02 -2.1607584669890190e+02 5.0908240313592830e+02 -2 2 0
4027 92 7 1.0000000000000000e+00 -5.0859430821468308e+01 -1.5714880128872912e+02 5.0973735943804883e+02 0 -3 1
4359 92 7 1.0000000000000000e+00 -2.8469867909468314e+02 -4.3578464655095490e+02 5.1759221030107506e+02 2 3 1
799 92 7 1.0000000000000000e+00 -1.5468334642988327e+02 -2.9517344929353612e+02 5.1307044966228284e+02 2 0 -7
4542 92 8 -1.0000000000000000e+00 -4.4457002178034560e+02 -1.2751501382345296e+02 5.1694573281322573e+02 -5 0 0
4104 92 8 -1.0000000000000000e+00 -3.6413593070412935e+02 -3.0095180074942641e+02 5.2131108066278330e+02 -2 0 -4
1019 92 7 1.0000000000000000e+00 -2.1393400866568632e+02 -3.2999617543564244e+02 5.2568775203484904e+02 0 -6 2
4324 92 8 -1.0000000000000000e+00 -3.5595431872300838e+02 -3.1683844570398645e+02 5.2984522002679182e+02 3 0 -1
3909 92 7 1.0000000000000000e+00 -2.8362665694567818e+02 -3.1705211576146240e+02 5.2691171924074229e+02 1 -2 -3
1256 92 7 1.0000000000000000e+00 -3.2999439480642900e+02 -3.0955131255693306e+02 5.2572565784252890e+02 0 4 4
5789 92 15 -1.0000000000000000e+00 -1.2499007216470643e+02 -1.5298145685349110e+02 5.2565568921424381e+02 0 -5 -7