LAMMPS data file via write_data, version 22 Aug 2018, timestep = 10000000

4853 atoms
9 atom types
1170 bonds
11 bond types
1170 angles
18 angle types
180 dihedrals
21 dihedral types
270 impropers
1 improper types

-4.5000000000000000e+02 5.5000000000000000e+02 xlo xhi
-4.5000000000000000e+02 5.5000000000000000e+02 ylo yhi
-4.5000000000000000e+02 5.5000000000000000e+02 zlo zhi

Masses

1 14.027
2 12.011
3 15.999
4 1.008
5 12.011
6 15.999
7 22.99
8 35.453
9 196.967

Atoms # full

3814 92 8 -1.0000000000000000e+00 -2.3522214304502495e+02 -3.3035230912757953e+02 -4.4918426055419690e+02 -2 -3 -1
3802 92 8 -1.0000000000000000e+00 -1.9184038210336019e+00 -4.2744013437775538e+02 -4.3942625700778746e+02 2 -1 3
4787 92 7 1.0000000000000000e+00 -2.5674827577170163e+02 -2.4619806977363595e+02 -4.4005325506162410e+02 0 4 2
1002 59 7 1.0000000000000000e+00 4.5506482793386333e+01 -1.3152934841751605e+02 -4.3270839627259875e+02 5 -1 -1
4063 92 7 1.0000000000000000e+00 -4.4679238105789545e+02 -3.9419489682936268e+02 -4.2327835379443206e+02 -3 -1 -2
3804 92 8 -1.0000000000000000e+00 -2.9722917185373080e+02 -1.2535293132147167e+02 -4.2362411629874509e+02 2 -3 -8
4828 92 8 -1.0000000000000000e+00 -3.7704066397905177e+02 -3.5226387504776142e+02 -4.1866122480389470e+02 8 2 1
3837 92 7 1.0000000000000000e+00 -3.5720533002980289e+02 -3.6092203377593427e+02 -4.0820358961435289e+02 -2 1 -1
4380 92 8 -1.0000000000000000e+00 -1.7274876377610235e+02 -1.9604992770008133e+02 -4.0955141174362268e+02 -1 -2 2
4196 92 8 -1.0000000000000000e+00 -1.9567160306631666e+02 -1.4567861572124130e+02 -4.1069239064180556e+02 0 3 -1
3755 92 7 1.0000000000000000e+00 -2.9413959739439207e+02 -4.2183247886876319e+02 -4.0118247626406804e+02 3 3 -1
4619 92 7 1.0000000000000000e+00 -3.8495375821267788e+02 -2.5512430698934202e+02 -4.0603834333603828e+02 0 -1 4
4182 92 8 -1.0000000000000000e+00 -2.8166774051249485e+02 -2.3034169135558679e+02 -4.0366890128341328e+02 -4 0 -2
544 32 7 1.0000000000000000e+00 -6.7419771936021490e+01 -2.8841256620960712e+02 -3.9058650702829948e+02 2 -1 -1
4328 92 8 -1.0000000000000000e+00 1.9617430516621431e-01 -1.8276317240602191e+02 -3.8921833909586218e+02 0 -1 -3
1223 72 7 1.0000000000000000e+00 -4.2691900891243080e+02 -2.8400935103787555e+02 -3.7952622752864232e+02 -1 9 4
4038 92 8 -1.0000000000000000e+00 -2.4160128283745641e+02 -2.6795960702010586e+02 -3.8001165158286511e+02 -2 -4 -1
3815 92 7 1.0000000000000000e+00 -5.4936822817434859e+01 -2.9905052233679743e+02 -3.7445677046717594e+02 1 2 -2
4099 92 7 1.0000000000000000e+00 -3.3969515129208798e+02 -1.4373006619488095e+02 -3.7389667957837150e+02 -1 1 0
1309 77 7 1.0000000000000000e+00 -3.3830474915353983e+02 -4.4025225121889196e+02 -3.5328270707227307e+02 -5 -1 -4
4788 92 8 -1.0000000000000000e+00 -5.8428041890314901e+01 -3.5467005122899917e+02 -3.5152217337451560e+02 1 2 1
4850 92 8 -1.0000000000000000e+00 -2.2237364325530251e+02 -2.0846514458790534e+02 -3.5162933343988038e+02 -2 5 4
51 3 7 1.0000000000000000e+00 -1.5204443953947128e+02 -2.7676120726674350e+02 -3.4280178145335310e+02 7 -5 5
4651 92 7 1.0000000000000000e+00 6.0058123163115529e-01 -3.5827928112373212e+02 -3.3335698423160727e+02 3 1 0
3777 92 7 1.0000000000000000e+00 -2.9798349058705367e+02 -2.0481147968231932e+02 -3.3495154011467207e+02 0 -1 -5
4003 92 7 1.0000000000000000e+00 4.6219635620223066e+01 -3.8865031560954873e+02 -3.3008672210244623e+02 4 5 -4
4021 92 7 1.0000000000000000e+00 -2.7634263350042136e+02 -3.0910013864130144e+02 -3.1956208884104552e+02 2 -1 2
4477 92 7 1.0000000000000000e+00 -3.5440728552524246e+02 -3.0391361084466189e+02 -3.2213694674599975e+02 -2 -1 -2
4204 92 8 -1.0000000000000000e+00 -1.3635259123459184e+02 -2.4953810801604848e+02 -3.2203179952807466e+02 3 0 -2
287 17 7 1.0000000000000000e+00 3.1050149960677238e+01 -3.7717470775611815e+02 -3.1755945993040490e+02 -4 4 4
4069 92 7 1.0000000000000000e+00 -1.3270381511642287e+02 -3.2862376846272582e+02 -3.1688234856014213e+02 2 0 -1
4440 92 8 -1.0000000000000000e+00 -7.7861014441413744e+01 -3.2344137624896985e+02 -2.9671988556368450e+02 2 0 1
4085 92 7 1.0000000000000000e+00 -4.4498557724813321e+02 -3.4833166620071489e+02 -2.8938821894359461e+02 3 3 4
883 52 7 1.0000000000000000e+00 -1.5592750377283554e+02 -1.7503092876929944e+02 -2.7914402483197875e+02 3 4 4
3754 92 8 -1.0000000000000000e+00 -4.1160557898515759e+02 -4.3293671234470838e+02 -2.6027766856328026e+02 -3 0 -3
4649 92 7 1.0000000000000000e+00 -2.0725270540293525e+02 -1.1804531640381909e+02 -2.5375366316646137e+02 2 -3 3
4474 92 8 -1.0000000000000000e+00 -3.5990076525840243e+02 -3.2166728744998380e+02 -2.4224743059717269e+02 -2 2 3
4752 92 8 -1.0000000000000000e+00 -4.2853670053726546e+02 -1.6553568265706770e+02 -2.2967188912156200e+02 3 -3 4
4248 92 8 -1.0000000000000000e+00 -1.5769537635576361e+02 -4.0066361156390786e+02 -2.2340372777531951e+02 -1 2 1
4784 92 8 -1.0000000000000000e+00 -1.6051543146258425e+02 -3.8599789375118968e+02 -2.2064941363206242e+02 -4 -1 3
390 23 7 1.0000000000000000e+00 -1.9042385732801594e+02 -3.7080043339590128e+02 -2.2283523208173494e+02 0 -3 -2
4625 92 7 1.0000000000000000e+00 -2.8019734670361061e+02 -2.6793246923929888e+02 -2.1962208832338584e+02 5 -7 2
696 41 7 1.0000000000000000e+00 -2.3243173916410379e+02 -1.1768072031892183e+02 -2.2087465259988826e+02 6 2 2
3730 92 8 -1.0000000000000000e+00 -4.3000760152878775e+02 -4.0296351602289627e+02 -2.1871399546739821e+02 3 3 -1
3859 92 7 1.0000000000000000e+00 -2.8712266150227631e+01 -3.6941728336150294e+02 -2.1710059468431362e+02 -1 4 -3
3720 92 8 -1.0000000000000000e+00 -2.8556051568130124e+02 -3.7435807904265721e+02 -2.0738405861925156e+02 -2 -3 -5
4518 92 8 -1.0000000000000000e+00 -3.3116618840694974e+02 -4.3814570759205714e+02 -1.9462527822670199e+02 -1 -2 -2
4299 92 7 1.0000000000000000e+00 4.5856102699026096e+01 -2.0092995281498742e+02 -1.9651957974803159e+02 2 0 1
4298 92 8 -1.0000000000000000e+00 -1.3353984910526054e+02 -1.4329541596603715e+02 -1.9384426401796728e+02 -1 -2 0
4134 92 8 -1.0000000000000000e+00 -2.5897069052127091e+02 -3.7306344549702760e+02 -1.9329160523152458e+02 0 -3 -4
4532 92 8 -1.0000000000000000e+00 -4.3327152314076847e+02 -4.4134998366206133e+02 -1.8355728323329245e+02 -2 -1 -2
4790 92 8 -1.0000000000000000e+00 -2.4281205977133160e+02 -4.4060631135815584e+02 -1.8712180545011637e+02 2 1 0
3958 92 8 -1.0000000000000000e+00 -7.9808408592832649e+01 -3.4987387104373812e+02 -1.8234631356281983e+02 0 3 -1
4433 92 7 1.0000000000000000e+00 -4.3424399752377775e+02 -3.3917247385977691e+02 -1.8527355072673745e+02 1 0 2
4648 92 8 -1.0000000000000000e+00 -1.8371226734800163e+02 -2.8510832217912508e+02 -1.8126452746536242e+02 3 1 3
4131 92 7 1.0000000000000000e+00 -3.6090930548260974e+02 -2.9708078504123239e+02 -1.8099475014104661e+02 3 6 -1
4460 92 8 -1.0000000000000000e+00 -2.1725162803978515e+02 -2.0777318811462720e+02 -1.7522457103590412e+02 0 1 -2
4142 92 8 -1.0000000000000000e+00 -1.2727075027293068e+02 -3.8380224495008054e+02 -1.7249491508553592e+02 -2 -9 1
3925 92 7 1.0000000000000000e+00 -3.0123202324870147e+02 -3.5846035843066630e+02 -1.7286161279179350e+02 0 1 -1
4398 92 8 -1.0000000000000000e+00 -1.5048987243725921e+02 -3.1354479532504450e+02 -1.6251781960368317e+02 -3 -3 2
4712 92 8 -1.0000000000000000e+00 -5.8802276183255671e+01 -3.7644772891595557e+02 -1.6035153938253714e+02 -5 2 0
3890 92 8 -1.0000000000000000e+00 -4.4785106357906201e+01 -3.6386159703124804e+02 -1.5152314990566717e+02 0 4 1
4232 92 8 -1.0000000000000000e+00 -6.5956799564800377e+01 -3.2655502023037388e+02 -1.5249602954613306e+02 -4 -2 -1
4014 92 8 -1.0000000000000000e+00 -2.1103390735121340e+02 -2.7217864351792650e+02 -1.4277635980726114e+02 -1 -3 -2
4796 92 8 -1.0000000000000000e+00 -2.6874245805061861e+01 -1.9393126306013619e+02 -1.3443101845149869e+02 -6 -2 3
3687 92 7 1.0000000000000000e+00 -3.2916979884540183e+02 -1.3730764818876978e+02 -1.3517607769303669e+02 4 -4 2
4696 92 8 -1.0000000000000000e+00 -3.8610312690668997e+02 -1.4493780471183993e+02 -1.3069732830313635e+02 0 1 5
3736 92 8 -1.0000000000000000e+00 -1.5550972307934288e+02 -1.6761624480335524e+02 -1.2135428793007988e+02 0 -2 -2
1496 88 7 1.0000000000000000e+00 -1.7114061401670585e+02 -4.1144985758936309e+02 -1.1355186754523605e+02 -2 4 -5
4497 92 7 1.0000000000000000e+00 -2.4586150244096436e+02 -2.8892510953521133e+02 -1.0958362069760439e+02 0 -4 0
4804 92 8 -1.0000000000000000e+00 -3.1361573626634669e+02 -3.2420149307057204e+02 -9.1183898029692656e+01 3 1 0
3758 92 8 -1.0000000000000000e+00 -4.2304205588989214e+02 -2.4975852061192069e+02 -8.8498687182595134e+01 2 -1 -1
3766 92 8 -1.0000000000000000e+00 -4.2373435813966364e+02 -4.2135920981902666e+02 -8.5024067769529609e+01 2 3 -5
1139 67 7 1.0000000000000000e+00 -1.0568047502600079e+02 -4.2386331485232694e+02 -7.8947721530870339e+01 -3 0 6
4463 92 7 1.0000000000000000e+00 -3.2828170398049895e+02 -3.6833478121469574e+02 -7.2905999684356601e+01 -3 9 0
4116 92 8 -1.0000000000000000e+00 -1.1821702095890008e+02 -2.6519291968981071e+02 -5.9853864338263620e+01 -1 1 -1
4596 92 8 -1.0000000000000000e+00 -3.9861883747239659e+02 -1.3018485637718837e+02 -5.9435505489064312e+01 -1 2 2
4802 92 8 -1.0000000000000000e+00 -2.5652352254790151e+02 -1.7146486799481485e+02 -4.5765282591170887e+01 1 0 4
4092 92 8 -1.0000000000000000e+00 -1.9983210188098695e+02 -3.5038329806743934e+02 -3.7603016281150374e+01 1 0 -1
4590 92 8 -1.0000000000000000e+00 -2.9618129404487826e+02 -3.1098005584138218e+02 -3.8949736420869641e+01 -5 -1 -1
4353 92 7 1.0000000000000000e+00 -1.6039721661044217e+02 -2.4911203228541123e+02 -3.6128040555739318e+01 -2 0 2
4273 92 7 1.0000000000000000e+00 -4.1113314443243985e+02 -2.2297370752534923e+02 -3.0184347794696244e+01 2 -4 -1
4662 92 8 -1.0000000000000000e+00 -2.3335263299028452e+02 -1.6453591248987331e+02 -6.6940996427721462e+00 -8 1 -1
4135 92 7 1.0000000000000000e+00 -1.7486126760885264e+02 -3.2194298419873888e+02 2.9669161645922797e+00 -4 -1 2
815 48 7 1.0000000000000000e+00 -3.5695818748228925e+02 -1.4419834732420233e+02 5.8281166711130092e+00 1 0 3
3682 92 8 -1.0000000000000000e+00 -7.7019447189435866e+01 -3.7327854808511222e+02 1.1273844402303508e+01 -2 -2 -1
4613 92 7 1.0000000000000000e+00 -2.3339780616516316e+02 -2.2977796971871470e+02 1.8129376652297736e+01 -5 4 7
4030 92 8 -1.0000000000000000e+00 -2.6748107061861822e+02 -1.8983713623329069e+02 1.6139804265413481e+01 0 -4 -1
4565 92 7 1.0000000000000000e+00 -3.8946042392422925e+02 -4.2486412192703904e+02 3.0517466252193511e+01 5 3 0
4200 92 8 -1.0000000000000000e+00 -7.9177128542245896e+01 -3.2569308207611596e+02 2.8393383875185521e+01 3 -1 0
4833 92 7 1.0000000000000000e+00 -1.5829157684901568e+02 -1.4101070747676053e+02 3.0722070108218492e+01 4 7 5
594 35 7 1.0000000000000000e+00 -3.2388129407760761e+02 -3.5560963081322245e+02 3.2269917863218588e+01 2 2 7
4071 92 7 1.0000000000000000e+00 -3.5246839445608408e+01 -1.6570086238477413e+02 3.5547368209705652e+01 1 0 -1
4005 92 7 1.0000000000000000e+00 4.5745528017479913e+01 -3.4978312776908206e+02 4.5146531351159105e+01 2 6 -4
4661 92 7 1.0000000000000000e+00 -2.2668789666778918e+02 -1.5019421687777736e+02 4.3877936135275178e+01 6 -3 4
3812 92 8 -1.0000000000000000e+00 -1.6453786840969204e+02 -1.4955560294942435e+02 5.8419393225682953e+01 -2 -3 -4
4736 92 8 -1.0000000000000000e+00 -3.8839141552884234e+02 -1.9854407584184125e+02 6.2711043311854148e+01 -1 -7 0
4023 92 7 1.0000000000000000e+00 -2.3708858056838118e+01 -1.2717462350528999e+02 7.7053892951154268e+01 3 0 1
661 39 7 1.0000000000000000e+00 -3.9885018769336051e+02 -2.0196672559058862e+02 8.3180560674831426e+01 0 -9 -1
4641 92 7 1.0000000000000000e+00 -4.3596003038647939e+02 -1.9216532712905416e+02 8.7384131548862371e+01 -3 -2 0
4074 92 8 -1.0000000000000000e+00 -3.0165970936098000e+02 -2.3196048761122339e+02 9.3085661343117977e+01 -3 1 -1
493 29 7 1.0000000000000000e+00 -4.3771525792995692e+02 -2.1627109025005191e+02 9.9035115597792583e+01 -7 5 3
4522 92 8 -1.0000000000000000e+00 -3.9100625390204539e+02 -3.8058272194504792e+02 1.0610313301972553e+02 1 1 1
4618 92 8 -1.0000000000000000e+00 -1.9752378003001112e+02 -1.4608614416343937e+02 1.0132580132107782e+02 -4 -6 -2
4000 92 8 -1.0000000000000000e+00 -2.7153964215390505e+02 -1.8742244066742398e+02 1.0850827983345145e+02 2 1 0
4199 92 7 1.0000000000000000e+00 3.6589905548761827e+01 -1.6563251782726317e+02 1.1879641570215222e+02 2 -1 2
3836 92 8 -1.0000000000000000e+00 -3.6396980672967834e+02 -3.8273586083600446e+02 1.3029846310746640e+02 1 0 -4
4294 92 8 -1.0000000000000000e+00 -2.0600280887470805e+02 -3.7709666932112526e+02 1.2806616640797810e+02 -1 3 -4
1172 69 7 1.0000000000000000e+00 -1.9042604534022342e+02 -3.7641278751707949e+02 1.2797940079455739e+02 -2 2 8
561 33 7 1.0000000000000000e+00 -3.4145621933608379e+02 -2.5438781780480363e+02 1.2646495303955940e+02 1 5 -2
4138 92 8 -1.0000000000000000e+00 -2.5748441585129075e+02 -2.3003543545980241e+02 1.3245233861751402e+02 -2 -2 4
4207 92 7 1.0000000000000000e+00 -3.2911366677582259e+02 -2.7524245418494382e+02 1.4323365842247841e+02 -4 2 -2
3892 92 8 -1.0000000000000000e+00 -3.3978194037749091e+02 -2.3595337221822356e+02 1.4280984360964095e+02 2 6 -5
186 11 7 1.0000000000000000e+00 -9.2507977406128333e+01 -4.2404167077793358e+02 1.4503014382598113e+02 6 -5 3
3834 92 8 -1.0000000000000000e+00 -3.1405754813663393e+01 -2.5553781789909164e+02 1.5587628861137458e+02 -5 -3 -1
3984 92 8 -1.0000000000000000e+00 -8.2725720094354187e+01 -3.4692141408176553e+02 1.6386197386158958e+02 0 2 -1
4558 92 8 -1.0000000000000000e+00 -2.6288579594714236e+02 -2.1838468887593319e+02 1.6637188588153265e+02 0 -1 1
4083 92 7 1.0000000000000000e+00 -7.6365533835572975e+01 -1.6349841788904476e+02 1.6323192707681909e+02 2 0 3
3983 92 7 1.0000000000000000e+00 -3.5734770824374652e+02 -3.2552986795788877e+02 1.8050568920207172e+02 -1 -6 -2
270 16 7 1.0000000000000000e+00 -3.7828354404846954e+02 -2.4330059893273594e+02 1.7861465744900812e+02 0 -3 1
4419 92 7 1.0000000000000000e+00 -3.1626270091785830e+02 -1.8228922934627704e+02 1.8203284462657695e+02 3 1 5
4533 92 7 1.0000000000000000e+00 -3.0977377233485845e+02 -3.8757718631393078e+02 1.9973515897545127e+02 4 -2 0
4819 92 7 1.0000000000000000e+00 -3.0439143478780853e+01 -2.1084457984909491e+02 1.9956540767691092e+02 2 5 3
4140 92 8 -1.0000000000000000e+00 -4.1266544366205153e+02 -1.9295614161151883e+02 1.9916127718614456e+02 -2 -4 1
3970 92 8 -1.0000000000000000e+00 -2.3206676942296704e+02 -1.3600032561675491e+02 1.9670595494068380e+02 -4 3 -1
3964 92 8 -1.0000000000000000e+00 2.7888420813624492e+01 -1.8299209845493036e+02 2.0409317351457486e+02 2 2 -4
4300 92 8 -1.0000000000000000e+00 -6.4766234846816417e+01 -1.3135049503578713e+02 2.0977406803202916e+02 5 0 0
3888 92 8 -1.0000000000000000e+00 -2.7778835543577605e+02 -1.5141151550893881e+02 2.1740110755672248e+02 0 3 -2
1070 63 7 1.0000000000000000e+00 -6.6394597386872093e+01 -3.7159908687752301e+02 2.2095839245027778e+02 -1 2 3
4582 92 8 -1.0000000000000000e+00 -9.0536067119264743e+01 -1.7772597121035159e+02 2.3039269072322628e+02 0 2 -3
4745 92 7 1.0000000000000000e+00 -4.1269788835423746e+01 -4.4486261635737799e+02 2.3549427122989044e+02 5 -4 4
4799 92 7 1.0000000000000000e+00 -2.1913333919455511e+02 -4.0639946687195157e+02 2.3339344591056494e+02 2 4 3
1104 65 7 1.0000000000000000e+00 -3.7509965578026481e+02 -1.3101310804283415e+02 2.3614819143360415e+02 4 1 1
4809 92 7 1.0000000000000000e+00 -3.8567422224225439e+01 -3.6727604669423937e+02 2.3810137865986937e+02 -2 1 1
4323 92 7 1.0000000000000000e+00 -3.9166165036656321e+02 -1.6032261417286256e+02 2.4136666971183143e+02 1 0 -1
4288 92 8 -1.0000000000000000e+00 -5.3536766041837662e+00 -1.5935825192896888e+02 2.4684348121566794e+02 3 0 -1
4516 92 8 -1.0000000000000000e+00 -3.1438338782450461e+02 -4.0562175104383095e+02 2.6545226432825126e+02 1 -4 -1
3849 92 7 1.0000000000000000e+00 -3.7376240210460310e+02 -2.6058803977440380e+02 2.6608824487439159e+02 -1 1 -1
3844 92 8 -1.0000000000000000e+00 -1.8631433366059545e+02 -3.7238930028601641e+02 2.7574747065024513e+02 3 2 -2
3750 92 8 -1.0000000000000000e+00 -4.2984441875145995e+02 -3.1365985205848972e+02 2.7791578960280140e+02 -2 -2 -4
4563 92 7 1.0000000000000000e+00 3.5335622932116607e+01 -2.9965920195698897e+02 2.7667950498443378e+02 8 0 0
4779 92 7 1.0000000000000000e+00 -9.6284748491114115e+01 -4.4138813259919857e+02 2.8771816150666859e+02 3 -5 6
4711 92 7 1.0000000000000000e+00 -2.7373749130899176e+02 -4.0746912941591711e+02 2.9173453584049571e+02 -9 4 0
4070 92 8 -1.0000000000000000e+00 -2.0652345293747643e+02 -3.5544593478875771e+02 2.9856273183826812e+02 1 2 -1
4256 92 8 -1.0000000000000000e+00 -4.1312902672530777e+02 -2.0546045704337396e+02 2.9480509737259092e+02 0 -2 0
525 31 7 1.0000000000000000e+00 -1.6140730824484035e+02 -1.7986227788271029e+02 2.9811621909014394e+02 -3 -5 6
4765 92 7 1.0000000000000000e+00 -7.2954721546815776e+01 -1.7533332262537618e+02 3.0022596783256495e+02 2 -5 5
1086 64 7 1.0000000000000000e+00 -2.4157307079255872e+02 -2.6778900024483869e+02 3.0646096266238573e+02 -1 9 -4
288 17 7 1.0000000000000000e+00 -2.2766029630586209e+02 -2.2969459276960222e+02 3.0666334186167762e+02 0 -3 0
4031 92 7 1.0000000000000000e+00 -4.3905473201900799e+02 -1.8869031105678764e+02 3.1222297184651268e+02 3 -3 8
4471 92 7 1.0000000000000000e+00 -2.3594306281388666e+02 -2.6945210845835862e+02 3.2199687751390474e+02 -3 4 -2
4174 92 8 -1.0000000000000000e+00 -2.5415429785958551e+02 -3.6116243338090686e+02 3.3723499689209666e+02 -2 -3 -1
4465 92 7 1.0000000000000000e+00 -2.0998639044057020e+02 -2.6246552429064195e+02 3.3722341181814272e+02 -2 5 3
4763 92 7 1.0000000000000000e+00 -3.7993711400345478e+00 -1.6273394931476398e+02 3.3981937631677988e+02 2 -3 6
4456 92 8 -1.0000000000000000e+00 -5.6911196017371438e+01 -3.0881894842704060e+02 3.5034561936677454e+02 5 -3 1
4094 92 8 -1.0000000000000000e+00 -2.6358254514597019e+02 -3.1527652658582440e+02 3.6383607132361993e+02 -1 1 -2
3934 92 8 -1.0000000000000000e+00 -3.7765590714439446e+02 -2.8170346840248180e+02 3.6423347305678357e+02 -4 1 -3
66 4 7 1.0000000000000000e+00 -1.7891153251092291e+02 -4.0877538506946104e+02 3.7492226731179437e+02 3 6 1
4305 92 7 1.0000000000000000e+00 -2.1707584181865201e+02 -3.6704120290558797e+02 3.7051494780204769e+02 -4 1 -2
3816 92 8 -1.0000000000000000e+00 -4.4282175228738126e+01 -3.2474377534127245e+02 3.7119785319286808e+02 -1 1 -2
527 31 7 1.0000000000000000e+00 -2.9562331029148800e+02 -3.8232390542011308e+02 3.8716988320504430e+02 0 8 0
4840 92 8 -1.0000000000000000e+00 4.1997214728231583e+01 -3.1921040024203444e+02 3.8368197908037030e+02 5 3 0
3717 92 7 1.0000000000000000e+00 -3.3968554491703003e+02 -2.5198012684999730e+02 3.8162250494327373e+02 3 7 -1
4599 92 7 1.0000000000000000e+00 -1.0155185264036183e+02 -2.2920069115963582e+02 3.8326957610910262e+02 2 5 -1
4032 92 8 -1.0000000000000000e+00 -2.8601694801115121e+02 -1.9079663735155845e+02 3.9204370196200114e+02 -2 -4 1
3933 92 7 1.0000000000000000e+00 -6.6194032432606065e+01 -3.3553721505980718e+02 4.0478212566991056e+02 -2 3 -1
4829 92 7 1.0000000000000000e+00 -4.2997627426425510e+02 -2.9652037859182872e+02 4.0133314782762812e+02 -3 8 -4
4718 92 8 -1.0000000000000000e+00 -1.3579036138692615e+02 -3.5315314252694907e+02 4.0977046628101238e+02 2 -1 4
1224 72 7 1.0000000000000000e+00 -2.3319263012353900e+02 -2.5333955717620472e+02 4.1011625842839243e+02 -3 -4 2
3708 92 8 -1.0000000000000000e+00 2.5823458849470519e+01 -2.3664596829844976e+02 4.1181504740775858e+02 -4 2 -3
3838 92 8 -1.0000000000000000e+00 -1.2786038468863401e+02 -2.3308621150283179e+02 4.0681183738439086e+02 0 1 -2
117 7 7 1.0000000000000000e+00 -3.4253147514037454e+02 -2.2046671138641312e+02 4.0757081958769015e+02 1 3 5
1377 81 7 1.0000000000000000e+00 -4.1605988400117093e+02 -1.1754304849569174e+02 4.0833105967930010e+02 -5 2 -4
4573 92 7 1.0000000000000000e+00 -7.9550588367640756e+01 -2.5387167249605608e+02 4.2463756040143664e+02 0 1 1
4466 92 8 -1.0000000000000000e+00 -2.3827729573316930e+02 -2.0492076587140750e+02 4.2240657778399589e+02 -1 2 2
4395 92 7 1.0000000000000000e+00 -7.9728480962388346e+01 -3.8060647981566530e+02 4.2877799018168002e+02 1 0 5
220 13 7 1.0000000000000000e+00 -3.0115366007684918e+02 -1.4732118867345278e+02 4.2785599129423906e+02 -2 -2 4
3832 92 8 -1.0000000000000000e+00 -2.7347838593524887e+01 -1.2443198999206095e+02 4.2716670745108871e+02 1 2 -3
4762 92 8 -1.0000000000000000e+00 -3.8262207637134787e+02 -3.0490244770829975e+02 4.3373009287002179e+02 -1 -1 0
3721 92 7 1.0000000000000000e+00 -2.7811029553870634e+02 -3.4345812674057629e+02 4.3752081406095289e+02 1 1 -6
4133 92 7 1.0000000000000000e+00 -3.4485561713030575e+02 -2.6934598737444742e+02 4.4052290171090664e+02 5 5 -5
4173 92 7 1.0000000000000000e+00 -2.2125896252380960e+02 -2.1357744327349789e+02 4.4634097336960178e+02 2 -1 -1
3862 92 8 -1.0000000000000000e+00 -3.2747565696953615e+01 -3.7486309186769449e+02 4.5282481381863226e+02 1 1 -6
4652 92 8 -1.0000000000000000e+00 -3.9886430889194565e+02 -1.2290161044908186e+02 4.5152994590849613e+02 -1 -2 -1
424 25 7 1.0000000000000000e+00 -1.3917723451171921e+02 -1.2139562822289525e+02 4.5583344306054141e+02 4 -3 4
3770 92 8 -1.0000000000000000e+00 -7.1043145825093632e+01 -2.6051628099926688e+02 4.5681860185743352e+02 1 0 -3
3967 92 7 1.0000000000000000e+00 -3.8467078289375718e+00 -2.2253236101531957e+02 4.5963223759471509e+02 1 0 1
3875 92 7 1.0000000000000000e+00 -3.6596335569148590e+02 -2.6115740784787062e+02 4.6539386289495178e+02 3 4 -4
4095 92 7 1.0000000000000000e+00 -3.0158439309839122e+02 -2.0191893768359407e+02 4.6990748830066264e+02 3 1 0
4187 92 7 1.0000000000000000e+00 -5.6523384060939286e+01 -3.7774454063148221e+02 4.7757828794199935e+02 -1 -1 -3
4254 92 8 -1.0000000000000000e+00 -1.4976519770755274e+02 -1.8315762170470759e+02 4.8106685911438342e+02 -7 -2 1
4213 92 7 1.0000000000000000e+00 -3.3222485029505867e+02 -1.3935757470599671e+02 4.7503563765987838e+02 -1 5 3
4370 92 8 -1.0000000000000000e+00 -6.7363236408874684e+01 -2.9437911795381291e+02 4.8640154667104201e+02 1 1 -1
4122 92 8 -1.0000000000000000e+00 -3.6405503570854455e+02 -1.8490688010858929e+02 4.8564236513406149e+02 2 2 -2
4402 92 8 -1.0000000000000000e+00 -1.0846339258951622e+02 -2.3453116501069121e+02 4.9698482711225597e+02 -2 0 0
3975 92 7 1.0000000000000000e+00 -1.9064282882763550e+02 -3.4852656910560097e+02 5.0564518266601272e+02 3 3 0
4332 92 8 -1.0000000000000000e+00 -1.7272585523240059e+02 -3.1812618762071008e+02 5.0826898322412080e+02 2 1 2
3884 92 8 -1.0000000000000000e+00 -7.9515783672691709e-01 -2.9016399737179546e+02 5.0639823697736944e+02 -3 1 0
4441 92 7 1.0000000000000000e+00 -3.9208126630586116e+02 -2.6718525598702729e+02 5.1489593965159202e+02 2 -1 0
4086 92 8 -1.0000000000000000e+00 -3.3895217634380526e+02 -2.8145885349691827e+02 5.1959633380281571e+02 -5 -2 3
3911 92 7 1.0000000000000000e+00 3.5696672154358367e+01 -2.0007528197381080e+02 5.1987829028637418e+02 3 -4 -2
1240 73 7 1.0000000000000000e+00 -1.4195854729424050e+02 -1.3698646101174853e+02 5.2320517867840340e+02 -5 4 -2
4250 92 8 -1.0000000000000000e+00 -2.2903785218523899e+02 -1.2772404771207364e+02 5.2389965486764333e+02 1 0 -1
4194 92 8 -1.0000000000000000e+00 8.2753517157180134e+00 -1.2022331699303818e+02 5.2495086699443141e+02 -3 0 -4
560 33 7 1.0000000000000000e+00 -1.6709708947332967e+02 -4.3962600393037661e+02 5.2772639461845711e+02 2 1 2
4591 92 7 1.0000000000000000e+00 -2.5299404048541948e+02 -2.8938212462790659e+02 5.2935286488845736e+02 -3 6 3
4805 92 7 1.0000000000000000e+00 -2.6363192702422981e+02 -2.5365699645280225e+02 5.3124921679211411e+02 3 2 -4
1156 68 7 1.0000000000000000e+00 -1.9363973403180589e+02 -1.3868257237148438e+02 5.4337503393349596e+02 -1 2 1
4068 92 8 -1.0000000000000000e+00 -2.7471566491546639e+02 -1.9529321430817993e+02 5.4990454245053650e+02 -2 -1 -1
4754 92 8 -1.0000000000000000e+00 -4.0825584273407725e+02 -6.8036005082168614e+01 -4.4858371210614951e+02 5 3 2
3872 92 8 -1.0000000000000000e+00 1.6793621929982294e+01 5.2825440361709020e+01 -4.4524935399968376e+02 -1 -2 -3
3716 92 8 -1.0000000000000000e+00 -1.8586278112625948e+02 -1.1401167825313662e+02 -4.3425566888354729e+02 -2 0 -6
4564 92 8 -1.0000000000000000e+00 -3.7557643841329570e+02 7.6944326553377408e+01 -4.3133846362081556e+02 5 -2 5
4158 92 8 -1.0000000000000000e+00 -1.6573523647264429e+02 1.4309308639941696e+02 -4.2982375943783831e+02 -6 3 2
4258 92 8 -1.0000000000000000e+00 -3.8066199275273470e+02 1.4933626643769145e+02 -4.2046546018828798e+02 0 -5 -1
4257 92 7 1.0000000000000000e+00 -3.9196184258419902e+02 1.7336549458290582e+02 -4.2470318413294899e+02 -4 -5 3
4485 92 7 1.0000000000000000e+00 -1.2784962657876365e+02 2.1573030750557186e+02 -4.2208676256568629e+02 0 2 3
4020 92 8 -1.0000000000000000e+00 -1.5863116861056281e+02 -7.8474916769704265e+01 -4.1775397631092949e+02 0 -2 -3
4490 92 8 -1.0000000000000000e+00 3.4953934448896298e+01 1.0599991050026169e+02 -4.1773212648667430e+02 -3 4 1
475 28 7 1.0000000000000000e+00 -2.9593861019643617e+02 -1.0386397856322449e+02 -4.0750002324157771e+02 -1 2 2
3710 92 8 -1.0000000000000000e+00 1.4656639321892387e+01 1.9084135052849803e+01 -4.1092866009774036e+02 1 2 -3
4121 92 7 1.0000000000000000e+00 -4.2846818950976609e+02 -7.8373395826079388e+01 -3.9479544660173008e+02 6 4 -2
4176 92 8 -1.0000000000000000e+00 -3.4194116066017847e+02 2.3648342310179483e+01 -3.9527185108825091e+02 1 -1 -5
4778 92 8 -1.0000000000000000e+00 -3.7935679201214799e+02 1.2808540658611417e+02 -3.9733453175239549e+02 0 0 5
3843 92 7 1.0000000000000000e+00 -3.7189331612394960e+02 1.7475350926934891e+02 -3.9165066541530786e+02 5 2 0
3917 92 7 1.0000000000000000e+00 3.1127115865739956e+01 -1.0328673447250311e+02 -3.7701358811879396e+02 6 2 -3
3686 92 8 -1.0000000000000000e+00 -2.9858674829505861e+02 2.8076115251407835e+01 -3.8021228483062077e+02 4 -1 3
4685 92 7 1.0000000000000000e+00 -4.1544126670282941e+02 -5.7768767536619407e+01 -3.7088801188201109e+02 4 0 6
4821 92 7 1.0000000000000000e+00 -3.7805867546519283e+02 2.4421238221116122e+00 -3.7234809765508379e+02 2 3 5
3913 92 7 1.0000000000000000e+00 -1.1295834103412218e+02 1.2590387656023380e+02 -3.7027087492679379e+02 2 -2 -5
4633 92 7 1.0000000000000000e+00 -1.5542430647549804e+02 3.1028839751132278e+01 -3.6111297843447221e+02 3 -3 5
3788 92 8 -1.0000000000000000e+00 -3.0546925435914162e+01 1.0631658667465653e+02 -3.5439679536164601e+02 0 0 -1
3986 92 8 -1.0000000000000000e+00 -1.1639807225354920e+02 1.9903137363106634e+02 -3.5279943863051091e+02 3 0 -2
1445 85 7 1.0000000000000000e+00 -4.0431527843806907e+02 1.7214860420408323e+02 -3.4879453272899514e+02 3 -5 5
1343 79 7 1.0000000000000000e+00 -1.9146320720745209e+02 -2.0347112722604834e+01 -3.3680528238958942e+02 -1 -7 1
119 7 7 1.0000000000000000e+00 -1.3577504036008278e+02 6.5489886586476507e+00 -3.3129406240277007e+02 -4 6 2
3723 92 7 1.0000000000000000e+00 -9.5462999438688030e+01 -1.0041599739609748e+02 -3.2690134760577331e+02 4 -1 1
3999 92 7 1.0000000000000000e+00 -4.0562068350992342e+02 3.7404246420070933e+01 -3.2914817890900207e+02 0 7 1
3853 92 7 1.0000000000000000e+00 -4.0236204686904881e+02 7.0376193991426462e+01 -3.2252966142328683e+02 1 3 -3
4100 92 8 -1.0000000000000000e+00 -6.0917223802715768e+01 2.1478241406415933e+02 -3.1968966872012788e+02 -1 -3 0
3785 92 7 1.0000000000000000e+00 -3.5688360895551348e+01 2.0176559671531044e+02 -3.0990311085488497e+02 5 0 6
4350 92 8 -1.0000000000000000e+00 -2.8171490794576198e+02 -7.6716895906844059e+01 -3.0624838076660330e+02 -5 0 2
4634 92 8 -1.0000000000000000e+00 -1.9427000600263534e+02 1.9065663848273240e+02 -3.0445450453833223e+02 1 -2 0
4598 92 8 -1.0000000000000000e+00 -1.9732608922101360e+02 -8.3632821798680425e+01 -2.9833684115872205e+02 -3 0 3
4212 92 8 -1.0000000000000000e+00 -3.7748811698615151e+02 -1.1206579327400171e+02 -2.9031582061126733e+02 -1 -1 -1
832 49 7 1.0000000000000000e+00 -2.8843602181312286e+02 -2.3125619956733633e+01 -2.9095060916514848e+02 5 -2 -1
4447 92 7 1.0000000000000000e+00 -1.2471703149318365e+02 2.1616225958734123e+02 -2.9123361371290844e+02 -1 -3 -1
4205 92 7 1.0000000000000000e+00 -3.3399454063041247e+01 -9.3315640518605875e+01 -2.8141495704610440e+02 3 2 1
3774 92 8 -1.0000000000000000e+00 -1.8545510633643309e+02 8.7569100790795559e+01 -2.7772478547978437e+02 -3 -4 -4
4281 92 7 1.0000000000000000e+00 -4.1804958619868609e+02 -9.0574976132603325e+01 -2.6411727883821129e+02 -1 -2 1
4035 92 7 1.0000000000000000e+00 -1.2322576618913854e+02 4.9898758206618211e+01 -2.6838752174914202e+02 5 -4 0
1359 80 7 1.0000000000000000e+00 -3.9043666126309557e+02 1.9277179856114267e+02 -2.6303615514448734e+02 -3 1 1
3692 92 8 -1.0000000000000000e+00 -4.1561322238430250e+02 -7.3497348129464783e+01 -2.5168441859484483e+02 -3 -3 -2
4405 92 7 1.0000000000000000e+00 -4.3109998248885790e+02 4.7245035144793817e+01 -2.5619353435294209e+02 1 1 5
765 45 7 1.0000000000000000e+00 -1.4962836495969776e+02 1.1457335082601413e+02 -2.5060556893844171e+02 4 -1 2
4764 92 8 -1.0000000000000000e+00 -2.2688174046692754e+02 4.5895762779003626e+01 -2.4676545601665651e+02 0 -2 2
85 5 7 1.0000000000000000e+00 -1.0793001587731025e+01 4.0516200365896523e+01 -2.2217731750062731e+02 4 3 -4
4785 92 7 1.0000000000000000e+00 -2.3873159479849724e+02 2.0677394148349890e+02 -2.2439234823780961e+02 4 -4 5
4432 92 8 -1.0000000000000000e+00 -2.7322460793889127e+02 3.1341585842428590e-02 -2.0147045226247417e+02 3 -2 3
4348 92 8 -1.0000000000000000e+00 -2.6748336312408469e+02 1.0200128818810126e+02 -2.0407315908199911e+02 1 1 2
4724 92 8 -1.0000000000000000e+00 -3.8533071329521528e+02 -9.8613581644184350e+01 -1.9577576810004706e+02 -1 3 1
3663 92 7 1.0000000000000000e+00 -2.3053726184698780e+02 1.7059126909740809e+02 -1.9812236327413044e+02 0 -6 -2
4742 92 8 -1.0000000000000000e+00 -2.1284321286844087e+02 9.4843086196663890e+01 -1.8139411410423529e+02 -1 -3 0