
# ----------------- Init Section -----------------

    units real
    atom_style full
    bond_style hybrid harmonic
    angle_style hybrid harmonic
    dihedral_style hybrid opls
    improper_style hybrid harmonic
    pair_style hybrid lj/cut/coul/long 10.0 10.0
    pair_modify mix arithmetic
    special_bonds lj/coul 0.0 0.0 0.5
    kspace_style pppm 0.0001
    kspace_modify mesh 100 100 100

# ----------------- Atom Definition Section -----------------

read_data data.nvt_citAuNP_1mM
Reading data file ...
  orthogonal box = (-450.00000 -450.00000 -450.00000) to (550.00000 550.00000 550.00000)
  1 by 1 by 1 MPI processor grid
  reading atoms ...
  4853 atoms
  reading velocities ...
  4853 velocities
  scanning bonds ...
  3 = max bonds/atom
  scanning angles ...
  3 = max angles/atom
  scanning dihedrals ...
  2 = max dihedrals/atom
  scanning impropers ...
  1 = max impropers/atom
  reading bonds ...
  1170 bonds
  reading angles ...
  1170 angles
  reading dihedrals ...
  180 dihedrals
  reading impropers ...
  270 impropers
Finding 1-2 1-3 1-4 neighbors ...
  special bond factors lj:    0        0        0.5     
  special bond factors coul:  0        0        0.5     
     4 = max # of 1-2 neighbors
     5 = max # of 1-3 neighbors
     9 = max # of 1-4 neighbors
    13 = max # of special neighbors
  special bonds CPU = 0.001 seconds
  read_data CPU = 0.015 seconds
#read_restart res.
# ----------------- Settings Section -----------------

    pair_coeff 1 1 lj/cut/coul/long 0.118 3.905
    pair_coeff 2 2 lj/cut/coul/long 0.05 3.8
    pair_coeff 3 3 lj/cut/coul/long 0.17 3.12
    pair_coeff 4 4 lj/cut/coul/long 0.0 0.0
    pair_coeff 5 5 lj/cut/coul/long 0.105 3.75
    pair_coeff 6 6 lj/cut/coul/long 0.21 2.96
    pair_coeff 7 7 lj/cut/coul/long 0.0005 4.07  #Na
    pair_coeff 8 8 lj/cut/coul/long 0.71   4.02  #Cl
    pair_coeff 9 9 lj/cut/coul/long 5.29 2.951 #0.039  2.935 #1.55  2.629 with 5.29  kcal/mol
pair_coeff  1   9   lj/cut/coul/long 0.067838042 3.42
pair_coeff  2   9   lj/cut/coul/long 0.044158804 3.3675
pair_coeff  3   9   lj/cut/coul/long 0.081424812 3.0275
pair_coeff  4   9   lj/cut/coul/long 0   1.4675
pair_coeff  5   9   lj/cut/coul/long 0.063992187 3.3425
pair_coeff  6   9   lj/cut/coul/long 2.0 2.9475         #COO-O-Au
pair_coeff  7   9   lj/cut/coul/long 0.00441588  3.5025
pair_coeff  8   9   lj/cut/coul/long 0.166403125 3.4775

    bond_coeff 1 harmonic 260.0 1.526
    bond_coeff 2 harmonic 317.0 1.522
    bond_coeff 3 harmonic 386.0 1.425
    bond_coeff 4 harmonic 260.0 1.526
    bond_coeff 5 harmonic 350.0 1.51
    bond_coeff 6 harmonic 450.0 1.364
    bond_coeff 7 harmonic 317.0 1.522
    bond_coeff 8 harmonic 656.0 1.25
    bond_coeff 9 harmonic 553.0 0.945
    bond_coeff 10 harmonic 320.0 1.41
    bond_coeff 11 harmonic 268.0 1.529
    angle_coeff 1 harmonic 63.0 112.4
    angle_coeff 2 harmonic 63.0 112.4
    angle_coeff 3 harmonic 80.0 109.5
    angle_coeff 4 harmonic 70.0 108.0
    angle_coeff 5 harmonic 70.0 116.0
    angle_coeff 6 harmonic 80.0 117.2
    angle_coeff 7 harmonic 70.0 117.0
    angle_coeff 8 harmonic 70.0 117.0
    angle_coeff 9 harmonic 80.0 126.0
    angle_coeff 10 harmonic 35.0 113.0
    angle_coeff 11 harmonic 55.0 108.5
    angle_coeff 12 harmonic 55.0 108.5
    angle_coeff 13 harmonic 40.0 109.5
    angle_coeff 14 harmonic 63.0 111.1
    angle_coeff 15 harmonic 63.0 111.1
    angle_coeff 16 harmonic 50.0 109.5
    angle_coeff 17 harmonic 58.35 112.7
    angle_coeff 18 harmonic 63.0 111.1
    dihedral_coeff 1 opls -2.5 1.25 3.1 0.0
    dihedral_coeff 2 opls -3.4 1.25 3.1 0.0
    dihedral_coeff 3 opls -3.4 1.25 3.1 0.0
    dihedral_coeff 4 opls 0.3 0.0 1.3 0.0
    dihedral_coeff 5 opls -3.4 1.25 3.1 0.0
    dihedral_coeff 6 opls 0.7 -1.5 0.0 0.0
    dihedral_coeff 7 opls 3.0 5.5 0.0 0.0
    dihedral_coeff 8 opls 1.5 5.5 0.0 0.0
    dihedral_coeff 9 opls 0.0 1.412 0.0 0.0
    dihedral_coeff 10 opls 1.454 -0.144 -0.775 0.0
    dihedral_coeff 11 opls 0.0 0.82 0.0 0.0
    dihedral_coeff 12 opls 0.0 0.0 0.2 0.0
    dihedral_coeff 13 opls -0.356 -0.174 0.492 0.0
    dihedra