4853
Atoms. Timestep: 0
O 57.9028 34.7597 24.3628
C 58.5839 35.6436 23.8326
C 57.8209 36.5529 22.9117
C 57.6037 37.9296 22.2832
C 56.0962 37.9125 22.0442
C 54.7693 37.8065 22.7864
O 54.8206 37.4269 24.0044
O 59.7569 35.946 23.958
O 53.7514 38.1614 22.128
O 57.823 37.9575 20.9118
C 58.1186 39.0386 23.1583
O 57.386 39.4088 24.0734
O 59.316 39.3409 23.0802
H 58.5893 37.4385 20.6676
Na 32.3058 38.9065 31.4688
Na 203.543 -433.933 -370.841
Na 43.2242 37.4544 72.1031
O 57.6618 24.5382 52.52
C 58.8419 24.5101 52.1947
C 59.6425 23.6344 53.1049
C 60.3186 23.7247 54.5404
C 61.7755 24.1285 54.2871
C 62.7921 25.1261 53.6676
O 63.29 24.7761 52.6081
O 59.4526 25.2679 51.4371
O 62.7816 26.2996 54.195
O 61.2625 22.7053 54.2987
C 59.6031 24.5297 55.6724
O 58.414 24.2217 55.8868
O 60.3079 25.2396 56.43
H 61.2726 22.5887 53.3281
Na -330.175 236.724 136.432
Na 71.8977 16.8432 57.2802
Na 79.7778 -142.588 -154.524
O 74.2306 38.8211 44.6655
C 74.4271 40.0111 44.3872
C 75.1957 40.8478 45.4441
C 75.5763 41.4877 46.7594
C 75.1235 42.9419 46.6105
C 75.2831 44.3681 47.2034
O 75.0417 45.3329 46.4374
O 74.0621 40.6103 43.3594
O 75.4233 44.3651 48.4253
O 76.8065 42.0055 46.3182
C 74.9812 40.7352 48.0258
O 74.5725 39.5769 47.8569
O 74.9879 41.3474 49.1138
H 77.2416 41.459 45.6811
Na 24.8906 39.675 47.492
Na 531.283 517.357 29.3118
Na -152.044 -276.761 -342.802
O 70.5511 63.2191 42.8989
C 70.748 62.4169 42.0085
C 71.0565 62.8738 40.5614
C 70.6123 62.4522 39.1373
C 71.2842 61.2074 38.6461
C 71.1508 59.6839 38.4817
O 70.4032 59.075 39.2755
O 70.7295 61.2294 42.2433
O 71.6044 59.276 37.4574
O 71.267 62.9726 37.9707
C 69.0937 62.4843 39.0018
O 68.5922 63.3718 38.3105
O 68.4384 61.6374 39.6989
H 72.1918 62.8318 38.0307
Na -178.912 -408.775 374.922
Na 200.857 307.974 -182.158
Na -430.712 114.392 369.643
O 52.3259 54.0206 22.4192
C 52.8708 54.4733 21.3582
C 54.3906 54.2999 21.1838
C 55.6623 53.537 21.5019
C 56.3003 54.2329 22.7267
C 57.2254 54.7864 23.764
O 56.7369 55.7007 24.5035
O 52.2918 54.9835 20.3611
O 58.3416 54.2696 23.7773
O 55.4324 53.6059 20.1118
C 55.472 52.0056 21.707
O 54.3488 51.5284 21.8863
O 56.4713 51.3035 21.4203
H 54.8656 52.9102 19.7946
Na -43.8068 451.231 258.826
Na 98.1959 -234.645 69.2628
Na -10.793 40.5162 -222.177
O 56.6605 22.8269 41.3467
C 55.6653 22.7799 40.5841
C 55.8731 22.6429 39.1334
C 56.5902 23.1813 37.8275
C 55.6832 23.5045 36.5906
C 55.0042 24.5087 35.7337
O 55.6902 25.498 35.2992
O 54.4922 22.9476 40.9383
O 53.8403 24.27 35.5596
O 56.0672 21.8358 37.5359
C 57.6957 24.2263 38.2219
O 57.6907 25.297 37.6232
O 58.6149 23.8439 38.997
H 56.3683 21.3538 38.3009
Na 282.65 85.6531 408.858
Na 55.9206 34.1864 68.2489
Na 343.257 349.549 -30.6665
O 64.2197 64.0806 58.0794
C 65.2107 63.3209 57.918
C 65.7501 62.5486 59.1289
C 66.4556 61.5234 59.972
C 67.5771 60.9461 59.0915
C 67.8017 59.8909 57.9932
O 67.8299 58.6786 58.3957
O 65.8083 63.1306 56.8181
O 67.7784 60.3021 56.8206
O 67.6498 62.2656 59.8189
C 65.4626 60.5326 60.6774
O 65.7877 59.2925 60.6313
O 64.2956 60.9703 60.8705
H 68.3238 61.9227 60.4467
Na -342.531 -220.467 407.571
Na -76.1548 131.635 21.751
Na -135.775 6.54899 -331.294
O 38.5727 24.7826 45.7448
C 37.8979 25.821 45.6543
C 36.7439 25.9074 44.6637
C 35.6978 26.3305 43.5581
C 35.0009 27.6236 43.9694
C 34.7597 29.1592 43.7017
O 35.4803 29.6297 42.7845
O 37.9176 26.8486 46.4404
O 34.0039 29.8667 44.4714
O 34.3054 25.9794 43.6847
C 36.3919 26.3487 42.2087
O 35.8134 25.7195 41.2728
O 37.4657 26.9681 42.073
H 33.7794 26.6175 44.199
Na 79.4631 44.7971 11.0567
Na 100.289 360.072 -246.925
Na -328.807 66.1148 237.19
O 68.6244 57.1033 31.2301
C 69.2232 57.7281 32.1644
C 68.6994 59.0976 32.3739
C 68.7678 60.4511 33.0948
C 67.4651 61.217 32.9376
C 66.2199 61.7161 33.6093
O 66.2728 62.2064 34.7544
O 70.0044 57.2399 33.0394
O 65.1141 61.6028 33.0373
O 68.9976 61.5769 32.2861
C 69.2498 60.4099 34.538
O 69.4006 61.453 35.2044
O 69.6818 59.3197 35.0103
H 68.5141 61.4383 31.4779
Na 75.5995 52.4479 41.8136
Na 137.677 204.161 -238.865
Na 69.5253 49.3948 59.7381
O 50.1723 58.9487 25.6081
C 50.9065 58.9397 24.5796
C 52.0174 59.8431 24.423
C 53.5013 60.0582 24.0072
C 54.1943 61.1265 24.8884
C 54.4304 61.4124 26.3797
O 55.2005 60.6727 27.0687
O 50.4952 58.3517 23.5342
O 53.6862 62.2036 26.8856
O 53.4632 61.4007 23.815
C 54.3304 58.8173 23.8992
O 54.8266 58.4086 24.9902
O 54.4652 58.3147 22.7925
H 52.5734 61.642 23.7664
Na -357.252 520.919 296.206
Na -282.205 165.783 166.907
Na 46.9782 19.1649 37.9849
O 59.6905 36.5386 65.5397
C 59.1993 36.6929 66.6983
C 60.1371 37.1525 67.8465
C 60.9375 38.2822 68.4988
C 61.8784 38.7579 67.4279
C 62.4522 39.0648 66.0427
O 62.0191 38.4232 65.091
O 58.0996 36.2779 67.0377
O 63.1542 40.0594 65.9519
O 61.563 37.3376 69.3324
C 60.0422 39.4001 69.082
O 59.3044 40.0213 68.3061
O 60.1104 39.5307 70.3225
H 62.4834 37.4432 69.1532
Na 2.21343 -77.6237 -66.6205
Na -92.508 -424.042 145.03
Na 68.3893 33.7006 27.8899
O 43.2504 33.7672 27.4679
C 43.5993 34.2589 26.3636
C 44.1705 33.2919 25.3308
C 45.6467 32.8461 25.3223
C 46.6439 33.9013 24.9161
C 47.3789 34.9816 24.1013
O 47.0458 35.3217 22.9364
O 43.8293 35.4801 26.1334
O 48.1673 35.687 24.7823
O 45.4121 32.5544 23.9703
C 46.0866 31.7295 26.2958
O 47.0443 31.0085 25.9081
O 45.5762 31.7234 27.4469
H 44.8815 33.3088 23.7381
Na 35.4268 22.4278 44.09
Na 57.6029 60.5336 25.0105
Na 259.858 -236.243 73.0584
O 29.4714 53.6632 52.8695
C 29.4576 54.8836 52.5292
C 29.5672 55.9877 53.5986
C 30.2498 56.6307 54.8097
C 30.3805 55.7155 56.1075
C 31.2395 54.6572 56.884
O 30.6619 53.6083 57.2082
O 29.4169 55.1565 51.3424
O 32.4083 55.0289 57.0937
O 29.3531 57.09 55.8338
C 31.4582 57.5431 54.4305
O 31.2032 58.6326 53.9182
O 32.5388 57.158 54.8584
H 28.6424 56.4645 55.8748
Na 209.914 117.119 225.95
Na -301.154 -147.321 427.856
Na -428.549 265.385 390.157
O 62.9624 30.5629 32.5146
C 63.8071 31.3737 32.1339
C 63.892 31.7245 30.7087
C 63.7256 32.2035 29.2447
C 62.3342 31.6765 28.8649
C 60.8281 31.6547 29.0432
O 60.5353 31.0692 30.1046
O 64.7936 31.7643 32.7907
O 60.1528 32.3147 28.2141
O 64.4507 31.7071 28.1889
C 63.7624 33.7617 29.2161
O 64.761 34.3169 29.6946
O 62.8823 34.4026 28.6064
H 64.5284 30.7664 28.2548
Na 59.7729 43.9034 20.2669
Na 444.296 -389.842 355.602
Na -206.844 15.519 -147.905
O 28.6462 38.9814 52.8873
C 29.5673 38.3277 53.4282
C 29.8164 36.8136 52.9484
C 29.9077 35.5363 52.0986
C 29.4132 35.799 50.6028
C 29.4563 35.4164 49.1561
O 29.7217 36.3399 48.373
O 30.3625 38.7855 54.333
O 29.1804 34.2526 48.852
O 28.5887 35.0921 52.0705
C 31.1078 34.6144 52.3257
O 31.157 34.0937 53.4862
O 31.946 34.4013 51.4031
H 28.4761 34.461 51.369
Na 65.2956 145.465 10.2861
Na 506.303 254.777 435.354
Na -341.573 447.479 -62.4833
O 54.0489 69.4145 50.8817
C 54.3649 70.062 49.9112
C 53.5344 71.3142 49.5408
C 51.9404 71.4427 49.5391
C 51.2481 71.4855 50.9059
C 50.6463 70.6826 52.032
O 51.438 70.072 52.7295
O 55.3318 69.8095 49.1564
O 49.3818 70.5969 52.0737
O 52.4116 72.8091 49.596
C 51.2821 70.4438 48.566
O 50.2049 70.7886 47.9779
O 51.6659 69.3001 48.6575
H 52.8868 72.8519 50.3922
Na -378.284 -243.301 178.615
Na 164.912 344.267 -187.69
Na 48.4644 23.0078 51.159
O 40.6396 54.8853 26.5373
C 40.7281 55.2695 25.3606
C 40.6809 56.7887 25.0662
C 41.3237 58.1195 24.8346
C 40.7836 59.1312 25.8184
C 40.3096 60.0042 26.9642
O 39.5187 59.4283 27.7433
O 40.8138 54.4945 24.381
O 41.0945 60.9324 27.2904
O 40.6925 58.7914 23.8044
C 42.8553 57.9496 25.0379
O 43.6359 58.5551 24.2849
O 43.2332 57.2522 25.9986
H 40.0001 58.2087 23.6687
Na 31.0501 -377.175 -317.559
Na -227.66 -229.695 306.663
Na -39.4599 45.16 10.2399
O 64.8665 66.3062 44.9104
C 65.1207 67.4625 44.5457
C 65.4854 67.722 43.0426
C 65.706 67.5715 41.5049
C 66.4815 66.2897 41.3927
C 67.0562 64.9196 41.0549
O 66.2935 64.1455 40.4566
O 65.1976 68.4222 45.3591
O 68.1594 64.5753 41.617
O 66.6949 68.3037 40.9062
C 64.3564 67.6071 40.7476
O 63.818 66.5462 40.3727
O 63.9179 68.7451 40.4962
H 66.7901 68.011 40.0069
Na 330.362 -32.7235 -407.901
Na 443.889 12.0571 346.414
Na 72.3178 -215.192 -188.327
O 64.086 33.3424 61.5604
C 65.1028 34.0912 61.5784
C 66.1898 33.5398 60.6984
C 67.2421 33.185 59.5945
C 66.3784 32.4504 58.5312
C 65.8046 31.4301 57.6562
O 64.6708 31.0098 57.8963
O 65.4256 34.9813 62.4558
O 66.519 31.1265 56.6543
O 68.1939 32.2142 60.0147
C 68.0468 34.4056 59.0046
O 68.2487 35.4442 59.7619
O 68.2953 34.389 57.7845
H 67.754 31.4072 60.1305
Na 50.8219 37.2189 22.0752
Na -212.102 262.109 450.059
Na 318.982 -287.966 -208.799
O 61.3254 62.6441 29.9419
C 62.5641 62.4588 30.1037
C 63.3757 62.0323 28.9354
C 63.6346 60.7184 28.1113
C 64.8482 59.8872 28.7474
C 65.2098 58.9649 29.9725
O 65.0264 59.3966 31.1274
O 63.2052 62.4474 31.1866
O 65.7569 57.8748 29.7036
O 64.1125 61.2859 26.9153
C 62.2986 59.8662 27.9548
O 62.4519 58.6347 27.7281
O 61.1912 60.4175 28.2648
H 64.2803 60.5856 26.2653
Na 47.7375 23.9895 39.1118
Na 139.688 -324.004 -381.142
Na 271.439 -354.964 309.337
O 49.2468 50.7711 69.4976
C 48.7628 49.7423 70.0689
C 49.6342 48.9649 71.0969
C 50.9469 48.131 71.0914
C 50.7525 46.706 70.9248
C 50.1393 45.8824 69.8346
O 49.2673 46.3992 69.0624
O 47.6709 49.1854 69.7434
O 50.6188 44.7854 69.5145
O 50.8719 48.3341 72.5194
C 52.0703 48.5284 70.1371
O 53.2694 48.5087 70.5886
O 51.8727 48.5773 68.919
H 51.6559 47.9718 72.926
Na 23.8724 424.709 -24.1009
Na 272.431 455.881 476.821
Na 76.5216 53.8153 57.9644
O 68.3119 29.9253 40.8698
C 68.5908 30.7044 39.9398
C 70.014 31.0362 39.846
C 71.1684 32.0557 39.7025
C 71.4006 32.6963 41.1287
C 71.5845 32.6783 42.6426
O 72.5431 31.9751 42.9818
O 67.831 31.2549 39.1267
O 71.02 33.4974 43.4163
O 72.4973 31.5411 39.8969
C 70.8678 32.9483 38.4874
O 70.9732 32.4247 37.3683
O 70.6723 34.1893 38.614
H 72.5689 30.6565 39.4729
Na 60.8745 33.4352 65.4933
Na 252.151 166.108 -314.533
Na -50.2071 325.937 430.382
O 66.3292 54.8835 28.387
C 67.4313 54.2079 28.5633
C 67.6265 52.9258 27.8425
C 67.5016 51.4617 27.3517
C 68.5426 50.6473 28.199
C 68.8427 49.626 29.2677
O 68.8936 50.1748 30.3741
O 68.3727 54.6307 29.2747
O 68.9158 48.434 28.9635
O 68.4298 51.4016 26.3968
C 66.1393 50.8706 27.0376
O 65.569 51.3034 26.0216
O 65.7216 49.8925 27.7003
H 68.1495 50.6759 25.8531
Na 42.6585 53.0337 22.6692
Na -190.424 -370.8 -222.835
Na -263.921 120.021 164.668
O 54.1632 67.8876 59.7344
C 53.5332 67.4662 58.7674
C 52.0025 67.5156 58.8557
C 50.742 67.4677 59.7537
C 49.5145 68.0869 58.9614
C 48.4077 68.2072 57.9107
O 48.7547 67.8045 56.7832
O 54.1103 66.984 57.7597
O 47.33 68.7416 58.2378
O 50.9339 68.8384 59.5134
C 50.6121 66.1154 60.4516
O 49.5763 65.4286 60.2418
O 51.5773 65.6608 61.153
H 51.4722 68.9069 58.8113
Na 24.1348 50.4897 55.5511
Na -55.3414 -93.8679 169.892
Na -383.894 128.922 257.98
O 50.8682 28.7229 63.8599
C 49.8018 29.4348 63.8763
C 48.5208 28.698 63.6183
C 47.0335 28.535 63.2484
C 47.0268 27.5819 62.0593
C 46.8488 27.4687 60.5873
O 45.7042 27.4875 60.0245
O 49.7435 30.6706 64.0944
O 47.9353 27.4441 59.9705
O 47.1808 27.2207 63.7686
C 46.4167 29.9022 62.9195
O 45.2772 29.9745 63.3335
O 47.017 30.8585 62.2891
H 47.9803 27.2885 64.2665
Na 439.139 206.434 -295.165
Na -139.177 -121.396 455.833
Na 59.032 73.0513 53.7525
O 44.918 25.2227 55.6325
C 43.668 25.0173 55.4517
C 43.2809 23.8839 54.4634
C 42.4397 23.3193 53.2483
C 41.4533 24.4234 52.7922
C 40.8065 25.8273 52.686
O 40.0137 26.0078 51.7287
O 42.8105 25.7458 55.8303
O 41.3443 26.7819 53.3282
O 41.767 22.5496 54.2571
C 43.271 22.7137 52.0716
O 44.5232 22.6616 52.2399
O 42.7078 22.6805 50.9714
H 42.2707 22.6217 55.0997
Na 48.1822 46.9511 74.3863
Na 447.707 -152.269 240.616
Na 38.2209 54.1545 67.1635
O 36.3088 65.0523 39.3329
C 36.1977 65.8202 40.3321
C 35.0318 65.6816 41.3057
C 34.6697 65.3035 42.7611
C 33.4807 64.26 42.8564
C 33.2076 62.948 43.5189
O 34.1276 62.1245 43.424
O 36.8572 66.8675 40.5808
O 32.2302 62.9665 44.2902
O 33.4065 65.6529 42.3069
C 35.93 65.0142 43.6822
O 36.8203 64.2577 43.2107
O 35.9834 65.646 44.7886
H 32.7257 65.1572 42.7939
Na 53.432 29.0473 65.2646
Na 24.6551 50.911 36.7207
Na 440.458 -268.43 246.786
O 38.8055 30.7414 58.968
C 39.1735 31.0853 60.1023
C 38.1148 31.7585 61.0254
C 37.6698 33.1707 61.5008
C 38.9594 33.8008 62.0968
C 39.6542 34.4958 63.239
O 40.6989 33.9499 63.5876
O 40.1837 30.6413 60.7105
O 39.1872 35.6087 63.6526
O 36.6848 32.7035 62.417
C 36.9 33.9225 60.3965
O 36.8935 33.4911 59.238
O 36.4256 35.066 60.7182
H 36.2135 31.9858 61.9845
Na 418.672 -112.104 520.668
Na -295.939 -103.864 -407.5
Na 138.006 -232.628 74.4832
O 33.3713 45.4005 62.695
C 33.0332 44.6707 61.7322
C 31.6718 45.0829 61.1765
C 30.4657 45.2447 60.2161
C 30.413 46.7332 59.6794
C 31.001 47.8163 58.8665
O 30.2678 48.5494 58.193
O 33.5553 43.6741 61.2496
O 32.1177 48.2016 59.2656
O 30.475 46.0838 61.3278
C 30.4377 44.2034 59.0613
O 29.2859 43.8383 58.6086
O 31.4889 43.5521 58.8147
H 29.9679 46.7783 61.0609
Na 369.625 -64.5145 534.909
Na 427.086 438.442 59.2724
Na -437.715 -216.271 99.0351
O 52.8458 22.8506 43.6599
C 53.5755 22.5553 44.625
C 53.0976 21.5813 45.7417
C 52.5915 21.4228 47.1763
C 53.8302 21.429 48.1003
C 54.5987 22.715 48.5011
O 54.3243 23.2947 49.6129
O 54.8452 22.7252 44.6955
O 55.5218 23.0915 47.725
O 52.3288 20.1823 46.6115
C 51.5954 22.5682 47.607
O 50.4782 22.3445 48.1259
O 52.0153 23.7211 47.2909
H 52.921 19.9187 45.8658
Na 158.318 86.1942 -207.082
Na 43.8074 26.8002 62.5082
Na -297.828 378.927 -220.195
O 63.5192 67.5995 50.2554
C 63.1542 67.3411 51.4291
C 62.4752 68.4725 52.2511
C 61.2103 68.8329 53.1255
C 60.0559 68.9653 52.1301
C 58.7983 69.3438 51.3613
O 58.6702 68.8797 50.2174
O 63.1902 66.2605 51.9861
O 57.8601 69.9052 52.0399
O 62.3375 69.6374 53.2192
C 60.7859 67.7425 54.1557
O 61.2102 66.5699 53.9811
O 60.223 68.1642 55.1932
H 62.7874 69.6012 52.3325
Na -161.407 -179.862 298.116
Na 504.356 -445.455 -309.712
Na -295.623 -382.324 387.17
O 45.4255 23.1755 48.1673
C 46.5008 23.2915 47.557
C 46.3574 22.9715 46.0674
C 45.6094 22.6858 44.7901
C 44.3477 23.5492 44.6398
C 43.072 23.7823 43.8358
O 43.101 23.7904 42.58
O 47.5713 23.6968 48.0224
O 42.0107 23.976 44.4811
O 45.303 21.3769 45.2336
C 46.6153 22.7601 43.6328
O 47.1398 23.8792 43.3327
O 46.922 21.6908 43.0219
H 46.0552 20.7918 45.1056
Na 503.568 69.2924 -184.139
Na 76.8613 33.7466 40.8506
Na -67.4198 -288.413 -390.587
O 74.5842 42.8468 38.7713
C 74.5595 43.158 40.0009
C 75.1738 44.5445 40.3829
C 75.6202 46.0056 40.0208
C 75.0555 46.4756 38.6976
C 74.422 47.5664 37.8711
O 74.5436 48.8246 38.1987
O 74.1966 42.4793 40.9821
O 73.8369 47.1643 36.8323
O 76.9702 45.7477 39.5555
C 75.5288 46.9787 41.1839
O 76.3703 46.9138 42.0598
O 74.5933 47.7654 41.2263
H 77.2155 46.3969 38.9403
Na 245.539 -235.024 -301.474
Na -167.097 -439.626 527.726
Na -341.456 -254.388 126.465
O 36.2345 50.4846 64.4968
C 36.4427 51.6253 64.0621
C 35.1602 52.4969 64.1976
C 34.6524 53.6053 63.3043
C 35.4741 54.9227 63.3194
C 35.9365 56.2573 62.6342
O 35.2586 56.7346 61.705
O 37.4133 52.1495 63.5318
O 36.9654 56.7575 63.1081
O 34.1046 53.5982 64.6379
C 34.2229 52.9577 61.9776
O 33.0099 53.1182 61.6299
O 35.0353 52.2924 61.3919
H 33.4451 52.9232 64.9046
Na -174.096 215.968 427.735
Na 58.3555 -402.488 -145.821
Na -18.6412 -59.1512 32.4934
O 50.0998 59.9172 65.1953
C 50.8428 60.8101 65.6173
C 50.1873 62.1771 65.8272
C 50.3663 63.3674 64.8469
C 51.876 63.8869 64.7343
C 53.3093 63.8942 64.3977
O 53.7812 64.7636 63.6695
O 51.9993 60.7326 66.0147
O 53.9906 63.1808 65.2004
O 50.5515 64.2221 65.9338
C 49.557 63.2792 63.4749
O 49.9996 62.4601 62.659
O 48.461 63.9093 63.4616
H 50.2111 63.8274 66.7395
Na 14.5481 43.0738 30.5733
Na -323.881 -355.61 32.2699
Na -444.284 406.387 -341.67
O 36.3993 29.3491 51.2882
C 35.4084 28.7885 50.8487
C 34.0134 29.0383 51.4219
C 32.8915 30.0763 51.4624
C 32.278 30.1729 52.8864
C 32.0672 30.9301 54.2064
O 31.062 30.6704 54.8766
O 35.4203 28.1051 49.8154
O 32.9259 31.8265 54.4673
O 31.8037 29.2018 51.5651
C 33.2865 31.3899 50.9066
O 34.1167 32.0777 51.5379
O 32.9133 31.6328 49.7494
H 31.2698 29.3686 50.8153
Na -446.963 273.871 163.049
Na 135.04 429.832 14.2281
Na 30.5539 55.9427 60.4889
O 43.2793 23.411 39.2124
C 43.3222 23.5666 37.9597
C 42.0361 23.9766 37.2166
C 40.7589 24.8965 37.1997
C 39.9864 24.9472 38.5445
C 39.8554 25.6369 39.8529
O 39.7963 24.8997 40.8484
O 44.3903 23.3516 37.2564
O 39.7923 26.895 39.8216
O 39.7598 23.9302 37.1682
C 41.1616 26.23 36.5023
O 40.5569 26.4813 35.4635
O 41.9727 27.0362 37.049
H 39.1683 24.1001 37.8241
Na -308.901 461.533 -100.274
Na 411.458 240.648 -377.081
Na -419.637 329.639 342.569
O 68.7511 47.635 62.6846
C 67.9634 48.2035 63.4201
C 67.5827 47.4668 64.7175
C 66.8095 46.7844 65.8116
C 65.838 47.7392 66.4743
C 65.1637 49.148 66.6204
O 64.7965 49.4379 67.795
O 67.3366 49.2584 63.2366
O 65.101 49.9148 65.5748
O 68.0355 47.0121 66.4386
C 66.281 45.3946 65.5135
O 66.9218 44.3776 65.7943
O 65.0976 45.2758 65.1472
H 68.1315 46.5278 67.2277
Na 72.0949 42.9773 62.6444
Na -58.9771 525.259 -8.16037
Na 444.193 312.484 336.65
O 50.7461 27.8425 29.6996
C 49.8919 28.1046 28.7474
C 50.2992 29.2625 27.7732
C 51.6198 29.7977 27.0945
C 51.2289 31.06 26.3511
C 51.7077 32.4085 25.9897
O 52.5712 32.9435 26.7397
O 48.769 27.6736 28.7176
O 51.1537 32.8273 24.9094
O 51.1626 29.2484 25.8978
C 52.9389 29.9482 27.8964
O 53.926 29.3317 27.3905
O 52.8715 30.6016 28.9709
H 51.7134 28.568 25.774
Na -398.85 -201.967 83.1806
Na 381.541 463.509 204.695
Na 24.0613 49.4088 49.9447
O 29.4085 58.8434 48.7389
C 29.4543 59.4764 49.8305
C 29.7471 60.9655 49.6584
C 31.0104 61.7836 49.2944
C 31.9532 61.9068 50.5423
C 32.8939 61.5007 51.7086
O 33.8909 62.2515 51.9214
O 29.1205 59.0384 50.9593
O 32.524 60.5636 52.5038
O 31.1508 63.1432 49.636
C 31.7522 61.1552 48.1191
O 32.3007 60.0239 48.2594
O 31.6699 61.715 46.9963
H 32.0836 63.4022 49.475
Na 324.85 -402.466 -39.1857
Na 324.37 482.875 513.839
Na 377.416 -92.0414 99.5522
O 67.6039 28.452 51.6614
C 68.4093 29.3828 51.8209
C 69.3246 29.7209 50.6081
C 69.6859 29.6007 49.1174
C 68.8561 28.5676 48.4408
C 67.5929 28.8279 47.6662
O 66.4697 28.9499 48.2357
O 68.762 29.9307 52.9048
O 67.7405 28.9026 46.4448
O 70.6846 28.6618 49.5867
C 69.8414 30.9539 48.3972
O 70.9575 31.4237 48.2543
O 68.8102 31.4087 47.8334
H 71.5455 28.972 49.2957
Na 358.2 -290.441 -138.029
Na -232.432 -117.681 -220.875
Na 206.079 -106.175 328.183
O 45.3385 28.7163 30.6219
C 44.6139 28.1907 31.4564
C 44.8835 26.756 31.8223
C 44.967 25.519 32.7094
C 46.3835 25.1591 33.1313
C 47.6095 25.1604 34.0075
O 48.266 26.2242 33.9485
O 43.7506 28.8589 32.0592
O 47.9197 24.176 34.6958
O 45.4691 24.9671 31.5642
C 44.011 25.5096 33.949
O 43.4695 24.4308 34.2012
O 43.7581 26.6065 34.5298
H 44.8603 24.2588 31.3483
Na -28.4329 284.442 -137.965
Na 61.1438 33.2853 25.1838
Na 42.4812 40.9679 17.6109
O 56.1458 65.2845 32.3233
C 55.5018 66.0149 31.5467
C 56.0675 66.0561 30.145
C 55.9902 65.2419 28.8875
C 57.2575 65.4599 28.0125
C 58.5069 64.7129 28.6205
O 59.2 65.2781 29.4655
O 54.4067 66.5763 31.6788
O 58.7009 63.5289 28.2926
O 55.8272 65.8219 27.6275
C 55.2945 63.8789 29.0041
O 54.0486 63.8597 29.0612
O 56.0032 62.8604 28.9806
H 56.5701 65.5243 27.0608
Na 89.0172 -232.04 -212.429
Na 65.9419 39.6813 65.3938
Na 52.0329 290.674 125.171
O 30.0271 46.8897 31.5356
C 30.8315 45.9566 31.5745
C 31.3871 45.5208 30.2594
C 32.0676 44.2758 29.7025
C 32.991 44.6415 28.544
C 34.5178 44.5772 28.2966
O 35.2244 43.8295 29.0204
O 31.1808 45.4053 32.6418
O 34.8702 45.261 27.3348
O 30.971 44.7327 28.9763
C 32.7591 43.3257 30.6909
O 33.5395 43.849 31.5596
O 32.6429 42.083 30.3977
H 30.7959 45.5933 29.2136
Na 44.4063 66.6008 32.0586
Na -144.109 245.208 -289.552
Na 539.396 266.273 -137.012
O 74.0261 53.202 51.0291
C 74.2574 52.0269 51.3547
C 75.2055 51.2935 50.4651
C 76.1503 50.5383 49.5532
C 76.4628 49.2651 50.4277
C 75.9125 47.8619 50.6785
O 75.5455 47.2349 49.6747
O 74.0697 51.4971 52.4605
O 75.8724 47.4633 51.8589
O 77.3428 50.7063 50.3139
C 75.8331 50.4543 48.005
O 76.0676 51.4538 47.2899
O 75.2852 49.4285 47.5866
H 77.4858 51.5807 50.4964
Na 377.467 132.681 -379.032
Na 66.65 26.5757 49.7111
Na -149.628 114.573 -250.606
O 53.7975 27.3532 60.18
C 54.5207 26.9733 59.2703
C 54.3496 25.5534 58.8552
C 53.7644 24.575 57.7962
C 52.2819 24.6386 57.6386
C 50.9476 24.9493 56.8723
O 50.5072 24.2045 55.9447
O 55.4213 27.6651 58.6962
O 50.4698 26.0327 57.16
O 53.7704 23.5613 58.8226
C 54.584 24.4361 56.5156
O 54.6938 23.2958 56.0366
O 55.2318 25.4472 56.1219
H 53.2228 23.8582 59.5251
Na 67.3103 61.2001 64.4496
Na 70.2581 45.1273 64.7846
Na 185.113 241.35 415.189
O 55.0763 70.0998 43.18
C 54.0207 70.4564 42.5823
C 53.1825 71.5428 43.1799
C 51.6193 71.7411 43.1882
C 50.867 71.6658 41.8448
C 50.1485 70.688 40.8894
O 49.0618 70.1765 41.2542
O 53.5153 69.7931 41.6914
O 50.8171 70.4537 39.8328
O 51.948 72.8737 44.0023
C 50.9701 70.7577 44.2189
O 51.2704 69.5625 44.0893
O 49.992 71.1355 44.9085
H 52.5411 73.3321 43.4528
Na 442.749 -449.716 489.856
Na 511.414 -168.263 369.955
Na 398.624 240.36 -394.12
O 65.5072 26.6595 46.2536
C 64.6518 26.2634 47.0151
C 63.7715 25.1784 46.4996
C 62.8204 23.9942 46.1146
C 61.6726 23.6719 47.1318
C 61.0329 23.9078 48.5108
O 61.2241 25.0901 48.9362
O 64.371 26.847 48.0835
O 60.2937 23.0409 48.987
O 63.5708 22.9274 46.5814
C 62.18 24.1109 44.7895
O 61.1612 24.8852 44.7247
O 62.5985 23.516 43.7929
H 63.1728 22.5236 47.2987
Na 68.656 66.1222 44.7839
Na -356.958 -144.198 5.82812
Na -325.772 -39.6098 286.392
O 59.671 51.4134 23.5638
C 59.9947 50.5533 22.7421
C 61.3797 49.8461 22.8271
C 62.7648 49.0886 23.1708
C 62.4434 47.6351 23.0312
C 61.7327 46.3269 23.1045
O 60.7889 46.2075 23.9342
O 59.2294 50.1319 21.8414
O 62.1417 45.5348 22.2854
O 63.0821 49.3757 21.8521
C 63.3919 49.3972 24.5679
O 62.9576 50.349 25.2321
O 64.3487 48.7311 25.0069
H 63.064 50.3205 21.7927
Na 28.8391 40.2216 58.8776
Na -288.436 -23.1256 -290.951
Na 37.1464 27.3227 53.5984
O 34.1308 40.6878 63.2386
C 35.192 40.4294 63.8107
C 35.6233 41.202 65.023
C 35.981 42.6575 65.3178
C 37.182 42.7905 66.289
C 38.5328 43.4886 66.2058
O 39.5116 42.7972 65.7541
O 35.9051 39.4537 63.5557
O 38.6015 44.7291 66.3408
O 35.4 42.3307 66.6299
C 36.1572 43.6101 64.2022
O 35.6836 44.7337 64.408
O 36.6687 43.1497 63.1469
H 34.4537 42.1762 66.519
Na 35.2936 61.8808 61.479
Na 364.042 469.029 -256.35
Na 68.9531 26.5155 36.2112
O 71.9651 52.4746 30.72
C 71.9337 53.4966 31.4825
C 72.7929 53.5152 32.732
C 73.378 53.073 34.004
C 73.3334 54.2467 35.0865
C 73.1381 54.2531 36.5579
O 71.9548 54.1316 36.9516
O 70.9966 54.3877 31.5455
O 74.184 54.3724 37.2737
O 74.342 53.8678 33.3614
C 72.7041 51.7857 34.4922
O 73.5101 50.8565 34.5606
O 71.5168 51.794 34.8455
H 74.7304 53.4312 32.6247
Na 33.2989 64.8461 49.3675
Na 72.1983 48.2032 31.3684
Na 506.788 497.136 227.133
O 71.5383 45.6762 30.3696
C 71.0521 44.8282 31.0966
C 71.0601 43.4845 30.4892
C 70.8058 42.3292 29.5416
C 71.3848 41.0437 30.1492
C 70.6772 40.125 31.1577
O 70.3482 40.6336 32.2649
O 70.6009 44.9417 32.2695
O 70.4252 38.9213 30.8299
O 71.7239 41.5884 28.7805
C 69.3918 42.3636 28.971
O 68.5253 41.6619 29.5883
O 69.1342 42.9255 27.9036
H 71.2239 40.9485 28.2763
Na 105.94 -38.7417 511.501
Na -155.928 -175.031 -279.144
Na -432.771 405.638 398.841
O 47.1502 55.2491 67.4211
C 45.9711 55.1127 67.75
C 45.1994 56.3688 68.1059
C 44.032 57.2894 68.2413
C 44.2907 58.6493 67.5546
C 44.2723 59.2961 66.155
O 45.0441 60.2192 65.9164
O 45.2462 54.1382 67.5188
O 43.4064 58.9079 65.3974
O 44.8839 57.4902 69.375
C 42.6545 56.7107 68.0033
O 42.0843 56.2554 69.0139
O 42.1439 56.8085 66.8697
H 45.3167 56.6692 69.5854
Na 299.708 449.218 -190.425
Na -412.023 29.7199 91.8144
Na 457.14 1.54159 247.515
O 30.9793 55.1288 34.0153
C 31.5428 54.1568 33.4393
C 31.919 54.2507 32.0062
C 32.7834 54.4177 30.7614
C 33.1975 55.8998 30.9535
C 33.5993 57.2105 31.6547
O 32.7471 57.6158 32.464
O 32.0031 53.1649 34.0465
O 34.784 57.5863 31.412
O 31.5273 54.3363 30.2405
C 34.0287 53.5045 30.575
O 34.5874 53.5043 29.4493
O 34.4462 52.9617 31.6029
H 31.4322 54.9217 29.4766
Na -64.5725 -50.608 -139.76
Na 228.599 -99.5993 -447.601
Na 41.6998 50.5072 14.4965
O 47.7927 61.8706 26.9342
C 46.6521 62.0253 27.3146
C 46.1224 63.4619 27.3784
C 46.025 64.6142 28.3932
C 44.5254 64.8145 28.6086
C 43.391 64.194 29.4146
O 42.7881 63.2677 28.8709
O 46.0126 61.2491 28.0472
O 42.916 64.7222 30.4445
O 45.8144 65.934 27.9874
C 46.8443 64.2377 29.616
O 48.0909 64.6034 29.5967
O 46.3173 63.6115 30.5215
H 46.3524 66.5288 28.4402
Na -189.403 160.66 445.122
Na 56.9391 68.5348 62.1653
Na 201.18 532.183 -364.56
O 63.5328 26.2959 40.8169
C 63.1033 26.1659 39.6627
C 63.9948 26.4866 38.4432
C 65.2607 27.1574 37.841
C 64.8961 27.263 36.3394
C 64.2184 28.0801 35.2328
O 64.8536 29.119 34.9713
O 62.0012 25.695 39.5441
O 63.1584 27.5695 34.6912
O 65.8888 25.8861 37.8616
C 65.7486 28.4353 38.5815
O 65.1643 28.9529 39.5411
O 66.8063 28.8284 38.1583
H 66.4787 25.8445 38.6227
Na 105.763 -445.836 248.525
Na 316.208 -378.828 498.583
Na 476.421 234.326 -134.464
O 58.4938 26.8472 60.9124
C 58.6065 27.8567 61.6772
C 57.5611 28.2497 62.6519
C 56.411 29.1802 63.058
C 56.9776 30.2959 63.9845
C 56.1661 31.5651 64.1608
O 56.7452 32.6426 63.8236
O 59.6342 28.5655 61.5862
O 55.0649 31.4801 64.7237
O 56.7387 28.7251 64.3998
C 55.5231 29.5885 61.9107
O 56.0742 29.935 60.8547
O 54.3005 29.5544 62.1221
H 56.4536 29.3999 65.0363
Na 76.4395 63.0533 42.4824
Na -211.815 -59.5803 301.579
Na 229.233 60.0594 317.2
O 62.6364 62.0752 63.0149
C 62.3453 61.1032 63.7185
C 61.1115 61.2646 64.5648
C 59.6733 61.5674 64.9326
C 59.0614 62.6201 63.9517
C 58.4251 62.6522 62.6055
O 57.4155 63.3779 62.5268
O 63.0243 60.111 63.8299
O 59.0869 62.1538 61.7002
O 59.4954 62.9217 65.3737
C 58.8676 60.3348 64.9393
O 58.0577 60.1099 65.8862
O 59.0355 59.5361 64.0001
H 59.4323 63.498 64.5898
Na 27.4008 40.7633 50.1557
Na 40.0041 51.188 20.6361
Na 66.5136 133.846 57.1539
O 36.7029 31.6407 33.8812
C 37.1015 31.7111 32.6706
C 36.3277 32.6427 31.7824
C 36.0705 33.5473 30.4983
C 35.2925 34.7543 31.1522
C 34.9183 36.2036 31.4804
O 34.3935 36.2869 32.6196
O 38.1708 31.2713 32.2493
O 35.1314 37.1325 30.6705
O 35.5189 32.3775 29.9042
C 37.3378 34.0128 29.6445
O 37.142 34.8477 28.7816
O 38.4454 33.6467 30.0607
H 34.854 32.5629 29.2805
Na 50.068 38.7397 18.4275
Na 45.5065 -131.529 -432.708
Na 49.6355 21.0845 58.7654
O 50.0068 59.5735 69.1296
C 50.3676 58.6005 68.4526
C 51.6961 58.0764 68.9054
C 53.1155 57.6443 69.1199
C 53.2173 56.1046 69.4197
C 53.6771 54.6187 69.4399
O 54.9015 54.4857 69.3716
O 49.7449 58.0707 67.5164
O 52.7926 53.6994 69.5799
O 53.4786 57.6787 70.4754
C 53.9208 58.3093 68.035
O 54.3276 57.5459 67.139
O 54.172 59.5246 68.1107
H 54.4129 57.5797 70.4707
Na 66.0094 -329.483 194.842
Na 0.193048 241.61 -109.726
Na 355.913 229.268 345.846
O 66.0895 37.595 27.3341
C 66.6753 38.0673 26.2919
C 66.3716 39.5039 25.8307
C 65.6992 40.8283 25.6534
C 64.4809 40.7684 24.7863
C 63.3136 41.7524 25.0467
O 63.1938 42.8401 24.4329
O 67.5592 37.4641 25.6134
O 62.5834 41.444 26.0599
O 66.5306 40.581 24.512
C 65.5862 41.835 26.9151
O 65.4743 41.3096 28.0376
O 66.0487 42.9767 26.7524
H 66.3401 41.2645 23.8684
Na 29.861 41.3038 56.052
Na 299.998 126.716 0.841017
Na -254.132 31.8667 194.008
O 42.1241 47.1196 67.6321
C 41.2527 47.5107 68.4398
C 40.4943 48.7709 68.0894
C 40.0691 50.2778 68.0467
C 41.0367 51.2699 68.7535
C 42.5361 51.697 69.0208
O 42.8924 51.7522 70.1867
O 40.9557 47.0962 69.5933
O 43.1935 51.8863 68.0133
O 39.0334 50.5956 68.8706
C 39.6557 50.7449 66.601
O 38.7606 50.1229 66.0712
O 40.1697 51.8045 66.0615
H 38.2093 50.4465 68.4544
Na 307.004 -284.577 491.065
Na 67.0827 60.2165 -26.7484
Na 487.372 -353.852 -344.938
O 71.5611 49.2639 58.0341
C 72.2027 48.2619 58.3469
C 73.69 48.0403 57.8697
C 74.5682 47.4573 56.7464
C 74.4183 45.9661 56.4784
C 74.2117 45.076 55.2574
O 75.2221 44.8908 54.5351
O 71.7482 47.2865 58.9842
O 73.0338 44.63 55.0752
O 75.1257 47.4791 58.0174
C 74.4531 48.2413 55.481
O 75.5551 48.2999 54.8782
O 73.4943 49.044 55.3328
H 74.602 48.0562 58.5501
Na 35.2918 37.4391 16.643
Na -66.3946 -371.599 220.958
Na 189.279 131.648 514.296
O 57.188 67.5788 34.8325
C 57.164 68.8069 35.0157
C 58.1748 69.5174 35.9393
C 59.1759 69.3911 37.1236
C 58.4068 69.8691 38.3466
C 57.4563 69.8242 39.6194
O 56.2795 70.1812 39.4882
O 56.3253 69.5841 34.4967
O 57.9785 69.3647 40.6399
O 60.1988 70.2769 36.9053
C 59.9307 67.9859 37.3374
O 59.5798 66.9865 36.626
O 60.9152 67.9816 38.0734
H 59.9324 71.1912 36.8758
Na -241.573 -267.789 306.461
Na 483.119 -421.472 482.861
Na 325.113 -175.925 -416.772
O 67.2696 37.6141 63.713
C 68.462 37.7421 63.2424
C 69.2197 39.0086 63.601
C 69.3074 40.4308 63.1147
C 70.1453 40.4136 61.8508
C 69.7556 40.8648 60.4429
O 68.9698 40.2307 59.6782
O 68.9512 37.0639 62.3117
O 70.3968 41.8466 60.0852
O 70.6166 40.3708 63.6363
C 67.969 41.1724 62.9153
O 66.929 40.6444 62.4709
O 67.9397 42.2512 63.4955
H 71.0214 39.7801 62.9979
Na 435.165 500.206 54.9516
Na -375.1 -131.013 236.148
Na 440.434 367.077 -52.5027
O 67.3985 34.422 31.6143
C 68.3723 35.0962 31.1129
C 69.6675 35.3439 31.8648
C 70.8586 35.1239 32.9255
C 71.3638 36.3133 33.861
C 70.6233 37.1676 34.9546
O 70.6327 36.8397 36.1453
O 68.1906 35.836 30.097
O 70.2324 38.273 34.5016
O 71.7714 35.5729 31.8892
C 70.5692 33.8357 33.6903
O 69.4114 33.4589 33.9269
O 71.5175 33.1924 34.1429
H 71.2434 36.0823 31.304
Na 23.4992 32.46 39.7113
Na 55.329 200.498 -45.5087
Na 260.274 -140.051 -8.65172
O 64.1018 57.4154 64.3971
C 65.1162 56.7539 64.3161
C 65.4545 55.9137 65.5589
C 65.2347 54.788 66.6425
C 63.7656 54.2551 66.6972
C 62.7498 53.1544 66.36
O 61.5629 53.5686 66.2848
O 65.8402 56.5146 63.3202
O 63.2438 52.2041 65.7824
O 65.9269 55.9746 66.8754
C 66.1819 53.5276 66.7168
O 66.6641 52.9774 65.7357
O 66.4178 53.2008 67.8971
H 66.6254 55.8098 67.4961
Na 67.8971 -433.905 -20.9763
Na 364.96 353.209 -437.668
Na -105.68 -423.863 -78.9477
O 31.6135 34.946 42.8218
C 30.5819 34.2603 42.6679
C 29.2631 35.0138 42.4538
C 28.2437 35.9285 43.0505
C 28.6027 37.3703 42.5658
C 28.3187 38.7966 42.2399
O 27.4967 39.3972 42.9389
O 30.6068 32.9902 42.6655
O 28.9417 39.327 41.3099
O 28.3004 35.995 41.71
C 28.0615 35.7624 44.5501
O 27.0183 35.1823 44.9298