6453
Atoms. Timestep: 0
O 57.9893 44.3809 24.561
C 58.1107 43.1477 24.5834
C 59.4138 42.7077 23.97
C 60.9031 42.4514 23.9418
C 61.5713 43.7527 24.3336
C 62.1287 44.8795 25.3214
O 62.1654 44.5635 26.5216
O 57.3596 42.2922 25.0498
O 62.5218 45.9853 24.8231
O 61.9577 42.6078 22.9498
C 61.4246 41.2185 24.7348
O 62.3781 41.389 25.5609
O 60.8427 40.1042 24.5399
H 62.1198 43.5042 22.6793
Na -200.569 -17.6032 509.413
Na 15.194 -377.134 -99.7238
Na 167.074 491.053 -430.78
O 68.0356 30.8342 53.2152
C 67.7202 29.8581 52.4315
C 68.7346 29.5848 51.3055
C 68.6443 29.6417 49.7869
C 67.4993 28.8129 49.2193
C 66.2931 28.5169 48.3265
O 65.2266 28.0656 48.8556
O 66.9041 28.9397 52.6138
O 66.4291 28.8986 47.1306
O 69.0622 28.3103 50.0789
C 69.1293 30.9475 49.1021
O 68.362 31.5494 48.3382
O 70.2478 31.3932 49.4062
H 69.3022 27.9002 49.2157
Na -398.207 -337.911 -41.4944
Na 478.394 -135.598 425.236
Na 94.1717 -47.3933 369.395
O 76.0509 49.0462 45.2349
C 77.0793 48.4256 44.9447
C 77.8977 48.8709 43.746
C 77.5923 50.1437 42.804
C 77.268 49.5178 41.4803
C 76.2468 48.9189 40.4923
O 75.16 49.5271 40.623
O 77.3532 47.2813 45.3549
O 76.5888 48.0439 39.6783
O 78.8232 49.6136 42.4389
C 76.7719 51.3612 43.2759
O 77.3334 52.2147 43.9465
O 75.6275 51.4895 42.7915
H 78.7763 48.7312 42.1456
Na 313.158 276.204 168.954
Na -60.9061 -359.567 -399.629
Na -411.806 254.518 128.092
O 70.6413 61.8324 35.4193
C 71.7638 61.8071 35.9088
C 72.0999 62.8915 36.9441
C 72.5027 62.7488 38.4876
C 71.5286 63.7757 39.1183
C 70.58 63.6971 40.352
O 71.1196 63.7583 41.4802
O 72.6145 60.9611 35.6379
O 69.3426 63.6058 40.0962
O 73.3593 63.8715 38.571
C 72.4115 61.3221 39.0083
O 73.4596 60.6256 38.9128
O 71.3311 60.8964 39.4839
H 74.2641 63.6348 38.3258
Na -209.952 128.955 -359.409
Na -331.348 532.662 203.796
Na 362.279 -14.6951 469.018
O 53.0237 54.7502 24.1505
C 53.7289 55.4915 23.4678
C 54.91 54.8659 22.7104
C 56.4456 54.5695 22.654
C 57.1698 55.4745 23.6657
C 57.4722 56.2711 24.9285
O 58.5088 55.9586 25.5709
O 53.6134 56.7459 23.3883
O 56.7525 57.2297 25.1929
O 56.2771 55.3236 21.5134
C 56.7653 53.0342 22.7867
O 55.8584 52.2969 23.3032
O 57.8294 52.616 22.2435
H 55.4265 55.8218 21.6309
Na -246.261 507.038 -31.1913
Na -215.446 355.677 373.059
Na 40.1077 64.0626 29.1151
O 57.3775 27.9212 37.8139
C 56.2546 27.6629 37.3827
C 55.6272 26.3712 37.9588
C 55.1145 25.0337 38.537
C 55.4614 25.0575 40.0225
C 55.2434 25.5425 41.4575
O 56.2129 25.4746 42.2427
O 55.6995 28.1487 36.3804
O 54.124 25.9443 41.8515
O 56.1589 24.3218 38.011
C 53.6337 24.7217 38.3334
O 53.2542 23.6351 38.6494
O 52.8856 25.6339 37.873
H 55.8799 23.3913 38.0688
Na 515.374 -63.7955 109.912
Na 76.0728 78.1406 459.261
Na -366.392 59.7046 326.167
O 72.9844 61.6052 54.1107
C 73.1782 61.319 55.2994
C 74.5084 60.8623 55.7156
C 75.043 59.4188 55.9856
C 74.2665 58.935 57.1636
C 73.1517 58.248 57.9609
O 73.3604 57.0163 58.2539
O 72.2728 61.2426 56.1396
O 72.2599 58.9998 58.3624
O 76.1029 60.2643 56.4007
C 75.1578 58.3774 54.7898
O 75.6238 57.2171 55.0641
O 74.8865 58.7765 53.639
H 75.822 60.9414 56.9845
Na 121.552 -69.1722 -133.374
Na -412.491 161.897 506.222
Na -29.2595 103.254 -68.8773
O 39.7365 29.6502 49.5885
C 39.2822 28.727 48.8868
C 38.0386 29.0469 48.0776
C 37.5604 28.8823 46.6472
C 36.705 30.083 46.5708
C 36.4243 31.5795 46.6193
O 35.8712 32.0024 47.6305
O 39.7923 27.6214 48.7762
O 36.6055 32.2312 45.5593
O 36.1408 28.4792 46.9374
C 38.6904 28.6585 45.604
O 39.2576 27.5674 45.6479
O 38.947 29.506 44.7354
H 35.5069 28.7146 46.2708
Na -349.932 133.722 -354.279
Na 303.576 -33.5424 389.853
Na 354.052 -16.3192 28.644
O 61.3853 58.6255 25.7802
C 62.5333 58.6782 26.1691
C 63.0778 59.9617 26.8128
C 63.8794 61.0862 27.4296
C 62.839 61.8827 28.1703
C 61.8734 62.5306 29.1715
O 62.4562 62.9173 30.2699
O 63.244 57.6856 26.1844
O 60.7059 62.8455 28.905
O 64.2133 62.2605 26.7189
C 65.0101 60.6291 28.3552
O 64.8063 60.01 29.438
O 66.1778 60.8923 27.962
H 63.871 62.1705 25.8788
Na 221.505 323.901 534.902
Na 315.159 445.489 -170.676
Na -280.956 87.4643 39.8455
O 49.6797 60.9571 25.1661
C 50.4035 61.4317 26.097
C 51.8089 61.8711 25.7059
C 53.3258 61.8464 25.4705
C 54.0522 62.801 26.4447
C 54.0299 63.3321 27.8859
O 53.0808 64.1184 28.2422
O 50.1312 61.6546 27.2449
O 54.9449 62.9441 28.7186
O 52.8421 62.9213 24.729
C 53.8216 60.3594 25.365
O 54.6367 59.9496 26.2213
O 53.4631 59.703 24.3626
H 52.7302 62.8058 23.793
Na -54.5163 162.796 170.566
Na 133.802 -313.432 156.005
Na 91.7533 -401.387 -47.7365
O 59.725 33.9044 64.6513
C 58.7849 33.3577 65.2939
C 58.5318 33.8549 66.7051
C 58.1888 34.4953 68.0854
C 59.352 35.4075 68.6185
C 60.1944 36.6221 68.1442
O 60.6199 37.3748 69.0332
O 58.0863 32.4127 64.8415
O 60.3734 36.761 66.9329
O 58.8188 33.7058 69.0076
C 56.8664 35.0508 67.9242
O 56.637 36.2517 67.5386
O 55.9396 34.2582 68.3383
H 59.1136 34.304 69.6644
Na 29.0792 58.6805 67.6235
Na -377.662 -440.429 399.602
Na -252.883 -271.009 446.828
O 40.8743 39.014 26.8558
C 42.0476 38.8158 27.1713
C 42.7447 37.5511 26.7937
C 44.1002 36.8565 27.1379
C 45.2253 37.7741 26.5867
C 46.7157 37.6079 26.5689
O 47.2633 36.5105 26.2276
O 42.7926 39.6604 27.8241
O 47.3537 38.6423 26.8406
O 43.56 35.8682 26.353
C 44.2414 36.4781 28.6403
O 45.0674 35.6212 28.8995
O 43.4623 36.9403 29.5288
H 43.4614 36.1566 25.4757
Na 66.8449 53.7139 28.261
Na 73.5933 63.4178 43.7726
Na 43.4613 70.5191 58.3227
O 37.7176 61.6006 62.9165
C 37.3462 60.6056 63.616
C 36.0549 59.8393 63.2481
C 34.9119 59.1716 62.5107
C 34.2609 59.8437 61.3056
C 34.8632 60.5897 60.2073
O 35.0215 59.9843 59.1228
O 37.9737 60.1641 64.5866
O 35.3986 61.6455 60.5697
O 33.8444 59.5995 63.3841
C 35.2152 57.6868 62.3331
O 35.0813 56.9561 63.3652
O 35.6466 57.2571 61.2002
H 33.5475 58.8938 63.8826
Na 155.238 -32.8951 475.528
Na -181.535 495.582 -64.1793
Na -143.542 -35.1947 -234.964
O 61.7304 32.3416 32.6295
C 62.3435 33.1355 31.8897
C 62.0016 33.2592 30.4182
C 61.0877 34.0033 29.3422
C 59.636 33.472 29.2608
C 58.1167 33.6617 29.0641
O 57.6999 34.5604 28.3417
O 63.3178 33.8303 32.2503
O 57.3458 32.9129 29.7049
O 61.0035 32.8874 28.5489
C 61.3957 35.4972 29.2569
O 62.3067 35.9953 29.9527
O 60.5936 36.2168 28.598
H 60.9673 32.172 29.1139
Na 434.174 470.381 -150.642
Na 53.5118 -115.614 392.316
Na 51.8452 68.0052 30.5713
O 36.3128 34.265 54.865
C 35.7259 33.3812 54.2042
C 35.8054 31.9604 54.7446
C 36.6273 30.6658 54.8373
C 36.487 29.7961 53.5815
C 36.277 29.6559 52.072
O 36.8761 28.6833 51.566
O 35.1296 33.4641 53.1324
O 35.5092 30.4263 51.4385
O 35.3995 30.2425 55.4529
C 38.0968 30.9502 55.2946
O 38.9535 31.291 54.4352
O 38.389 30.6755 56.4507
H 35.5323 30.2119 56.3884
Na -186.678 56.0091 -113.166
Na -42.2448 -234.879 275.345
Na 478.415 -111.943 -44.3579
O 51.9674 72.9958 47.2714
C 51.4607 73.3258 48.356
C 52.0958 74.4254 49.1993
C 52.6202 74.3383 50.6434
C 51.553 74.1105 51.656
C 50.8076 73.0308 52.4948
O 51.4233 72.3506 53.2984
O 50.5441 72.5956 48.7766
O 49.5912 72.9872 52.3711
O 52.2515 75.5737 51.2547
C 53.7748 73.3043 50.7986
O 54.9196 73.7335 51.0755
O 53.3824 72.1005 50.733
H 51.4043 75.8448 50.939
Na -22.2473 91.5113 -263.649
Na 29.6351 -232.376 466.375
Na -329.112 -26.954 211.486
O 36.9796 60.5688 32.1438
C 37.874 61.2377 31.5927
C 38.5458 60.7409 30.2932
C 39.148 60.0781 29.1183
C 40.4559 60.7385 28.6893
C 42.0038 60.8138 28.7746
O 42.5509 61.8597 28.2824
O 38.3683 62.2702 32.1335
O 42.6281 59.8065 29.0824
O 39.1146 60.212 27.6895
C 39.2393 58.5321 29.3
O 38.2495 57.8756 28.8747
O 40.3452 57.994 29.6099
H 39.8331 59.7458 27.3201
Na 228.059 -348.22 -32.832
Na 419.705 367.513 378.263
Na -299.947 -47.968 -189.174
O 65.7732 69.4043 41.2727
C 66.7605 69.3432 42.0187
C 68.0918 69.1728 41.3718
C 68.9741 67.9603 41.1484
C 69.9203 67.4216 42.2699
C 71.2561 66.96 42.9786
O 72.303 66.8774 42.3253
O 66.695 69.2549 43.2737
O 71.2207 66.6897 44.2358
O 70.0322 68.8274 40.8392
C 68.2765 66.9707 40.2012
O 68.6803 66.9642 38.9946
O 67.2726 66.3888 40.5938
H 69.7467 69.6766 40.6697
Na -378.331 412.719 -85.7943
Na 17.7087 233.329 -419.99
Na 75.161 62.8575 40.5408
O 72.4292 35.8788 55.517
C 71.8088 35.2984 56.3988
C 71.8583 33.7563 56.3342
C 71.06 32.822 55.4256
C 69.6858 32.6293 56.055
C 68.2754 32.5879 56.5694
O 67.9455 33.4135 57.4849
O 71.1805 35.8404 57.3075
O 67.4963 31.8961 55.901
O 71.431 31.7709 56.2677
C 70.9734 33.36 53.9707
O 71.9861 33.956 53.5729
O 70.0645 32.9736 53.1569
H 71.4417 32.1224 57.1787
Na -295.184 100.425 181.087
Na 245.56 -179.664 544.722
Na -177.695 -301.181 -135.105
O 69.5461 60.5146 33.1652
C 68.697 61.0643 32.4903
C 68.3611 62.5004 32.7443
C 67.7036 63.8366 32.9185
C 66.4292 64.0001 32.0886
C 65.071 63.5374 31.92
O 64.8914 62.3763 31.6144
O 68.0891 60.5484 31.5206
O 64.2521 64.5026 31.9416
O 68.2063 64.9482 32.2161
C 67.607 64.2603 34.4809
O 66.5622 64.8466 34.9171
O 68.6365 64.3202 35.2188
H 69.0495 65.1097 32.6373
Na 125.531 141.824 165.255
Na 417.087 172.358 -387.085
Na 153.215 224.954 34.1938
O 58.7454 52.9906 70.3671
C 59.988 53.044 70.3439
C 60.7177 51.8134 70.8552
C 62.1933 51.2799 71.0737
C 62.302 49.8708 70.4552
C 63.0344 48.9757 69.4458
O 62.3672 48.0079 68.9657
O 60.6886 54.0781 70.1696
O 64.1595 49.4358 69.0226
O 62.3617 50.6056 72.2879
C 63.387 52.12 70.5723
O 64.3146 52.4204 71.3815
O 63.3705 52.4414 69.3274
H 61.631 50.0613 72.4141
Na 17.7377 -294.87 -205.28
Na 141.016 -147.796 271.879
Na -442.966 -364.938 429.578
O 73.2409 35.3431 47.152
C 74.2469 35.0802 46.4741
C 73.9782 34.5699 45.0556
C 73.1299 33.7951 44.03
C 72.2363 32.7697 44.6909
C 71.2554 32.5021 45.8023
O 70.3205 31.6967 45.6986
O 75.4254 35.2897 46.8757
O 71.3404 33.2427 46.7927
O 74.3934 33.5025 43.5358
C 72.5463 34.5589 42.8014
O 72.082 35.7389 43.0205
O 72.6311 34.0532 41.6613
H 74.9798 34.0947 43.8486
Na 109.046 -446.84 -148.595
Na -400.773 -370.255 -5.20921
Na 292.241 69.3437 156.931
O 74.9486 51.7983 37.9688
C 75.2255 52.175 36.8038
C 75.2707 53.6748 36.609
C 75.179 55.0958 36.0715
C 74.5352 55.2659 34.5997
C 73.1852 55.0528 33.9938
O 73.0678 55.5644 32.8633
O 75.3421 51.4983 35.79
O 72.3735 54.4738 34.7153
O 76.1474 55.5382 35.0962
C 74.5661 56.0736 37.1177
O 75.3098 56.2906 38.129
O 73.3809 56.5399 37.0406
H 75.8205 56.3078 34.6024
Na -416.138 483.352 -287.109
Na -417.296 314.514 130.353
Na -191.377 220.977 -317.792
O 53.0612 72.9708 56.6247
C 52.4465 72.4331 57.5322
C 50.8612 72.5468 57.5399
C 49.6024 72.1455 58.2602
C 48.439 71.9881 57.3388
C 47.3235 71.6566 56.3085
O 46.7611 70.583 56.3949
O 52.9881 71.7666 58.4574
O 47.1034 72.443 55.3244
O 49.0838 73.4924 58.3462
C 49.8799 70.8253 59.0482
O 49.732 70.8205 60.2618
O 50.0544 69.8015 58.432
H 48.1319 73.5212 58.571
Na 312.999 174.413 -159.854
Na -417.016 202.31 -33.407
Na -422.485 -440.227 280.804
O 52.4253 33.1083 66.1247
C 52.7181 31.8529 66.2185
C 51.5597 30.9194 65.8136
C 50.2041 30.7993 65.0633
C 50.4201 29.9862 63.8244
C 50.4561 29.9316 62.3349
O 49.4713 30.2891 61.6441
O 53.8581 31.336 66.4375
O 51.5045 29.527 61.7905
O 49.8352 29.7386 66.0223
C 49.6885 32.1695 64.6827
O 50.3182 32.936 63.9798
O 48.7151 32.5283 65.3997
H 48.9876 29.8817 66.3278
Na -161.551 -166.71 2.87228
Na -44.4984 -132.418 408.32
Na 383.465 -50.0501 -174.999
O 43.2983 28.8886 55.4051
C 43.2667 27.7977 54.8306
C 44.4421 26.7928 55.105
C 45.6856 26.4004 55.8571
C 46.6636 26.0168 54.7652
C 47.8039 26.1985 53.7113
O 47.4967 26.1894 52.4721
O 42.4827 27.5809 53.8752
O 49.0135 26.125 54.0352
O 45.4 25.0318 56.0298
C 46.3155 27.4895 56.7661
O 47.3725 27.1839 57.4469
O 45.7823 28.5992 56.9982
H 46.2042 24.5567 55.845
Na -192.256 -223.241 -341.448
Na 368.68 -22.4768 440.046
Na 461.929 288.864 212.04
O 35.722 67.3626 51.1659
C 35.8728 67.0554 49.9778
C 36.2066 68.2342 49.0016
C 36.7773 68.6491 47.6328
C 38.0446 69.607 47.6548
C 39.5604 69.6121 47.578
O 40.1806 70.5438 48.1589
O 35.6786 66.0009 49.3798
O 40.016 68.9022 46.6308
O 35.9822 69.7516 47.2893
C 37.1256 67.4846 46.6653
O 36.4899 67.4078 45.5762
O 37.9187 66.6442 47.0668
H 35.1772 69.5247 46.9668
Na 49.3639 65.4194 24.5072
Na -448.627 353.098 -199.405
Na 40.7536 192.615 -188.58
O 42.1947 31.1399 60.5169
C 41.9267 32.0173 61.4286
C 42.3805 31.7063 62.8383
C 43.2471 31.376 63.9889
C 43.5529 32.6685 64.7429
C 44.5112 33.7875 64.9805
O 45.7312 33.6077 64.7753
O 41.3203 33.1487 61.2194
O 43.9464 34.8792 65.1708
O 42.1434 32.0915 64.5323
C 44.5715 30.6568 63.7204
O 45.1069 30.7823 62.5722
O 44.8319 29.832 64.6032
H 41.8279 32.5555 63.8302
Na 373.671 294.231 -23.1469
Na -400.893 -88.4138 -125.019
Na 80.1928 -378.159 -283.663
O 32.5998 40.6161 57.6755
C 31.7902 40.0245 56.8946
C 32.3961 38.7137 56.2082
C 32.2027 37.6934 55.0847
C 31.7107 38.3827 53.7967
C 30.9612 39.3064 52.9637
O 30.0266 39.9406 53.4003
O 30.5962 40.3509 56.76
O 31.4768 39.5885 51.8664
O 31.2566 37.0146 55.8189
C 33.425 36.7578 54.8352
O 33.3159 35.7837 54.0969
O 34.4322 37.0079 55.5134
H 30.8885 37.5323 56.5075
Na 70.8933 73.1402 28.2607
Na 58.6957 60.3425 26.2079
Na -392.449 -34.2117 398.844
O 53.1357 25.7314 44.6084
C 54.1214 25.5234 45.3339
C 53.979 24.3717 46.281
C 54.2901 24.1713 47.7759
C 55.7735 24.2529 48.176
C 56.8183 25.1952 48.8392
O 57.9474 25.3634 48.2734
O 55.2602 26.0638 45.2932
O 56.4912 25.6232 49.9665
O 53.9204 22.923 47.3653
C 53.2674 24.947 48.6818
O 52.3941 24.3453 49.3811
O 53.3543 26.1853 48.5634
H 54.0884 22.7655 46.4528
Na 463.118 95.4692 -334.198
Na 3.37516 114.711 -77.0064
Na 163.282 -326.74 -264.607
O 61.9744 68.7792 58.2873
C 61.6436 69.9706 58.2457
C 62.2947 70.7885 57.1494
C 62.4697 71.0472 55.6237
C 61.1929 71.6155 54.9625
C 59.622 71.772 54.939
O 59.1531 71.4932 53.8602
O 60.8275 70.5027 59.0541
O 59.0452 72.0541 56.0357
O 63.331 72.014 56.111
C 63.3518 70.0592 54.781
O 63.7386 70.3544 53.6491
O 63.624 69.0235 55.3777
H 62.9192 72.8031 55.8391
Na 285.071 -43.2839 -423.497
Na 42.5313 53.5555 20.8206
Na -388.415 430.79 456.413
O 44.1348 25.2328 48.6472
C 44.951 25.2561 49.6205
C 46.3289 24.6995 49.3521
C 47.6711 24.5175 48.6784
C 47.5621 25.1482 47.2617
C 46.9176 26.1761 46.2448
O 47.5676 26.7236 45.3344
O 44.9762 26.1283 50.4918
O 45.6738 26.183 46.2483
O 47.8476 23.2614 48.0511
C 48.7598 25.114 49.5449
O 49.5525 24.3212 50.1262
O 48.8574 26.3712 49.5395
H 47.5501 22.5753 48.6175
Na 210.579 -340.905 -254.581
Na -323.932 488.042 -200.329
Na 235.896 141.46 88.8552
O 75.3417 40.6719 41.0462
C 75.7168 41.5728 41.8595
C 76.8986 41.2751 42.7184
C 77.3555 41.2641 44.1993
C 77.4543 42.6149 44.8337
C 76.5927 43.7093 45.4254
O 76.5753 43.7751 46.6708
O 75.0679 42.5981 42.1865
O 75.9389 44.4891 44.6597
O 78.4176 40.4066 43.7225
C 76.6793 40.2499 45.0345
O 75.4508 40.0112 44.8575
O 77.2342 39.881 46.0499
H 79.1473 40.9389 43.4516
Na -128.084 322.625 -322.924
Na -435.363 403.288 -355.803
Na 280.65 50.3373 245.751
O 42.0979 58.85 67.1261
C 41.763 58.1504 68.079
C 40.5269 57.1881 67.9839
C 39.7012 55.8074 67.9898
C 38.5527 55.865 66.9711
C 38.0433 55.1288 65.7476
O 38.6962 54.2276 65.2227
O 42.439 58.1428 69.1042
O 36.8103 55.3503 65.6236
O 38.4505 56.1707 68.6097
C 40.707 54.6051 67.8987
O 41.2282 54.2418 66.803
O 40.9153 54.0787 69.0037
H 37.9901 56.6026 67.8945
Na -82.9091 -126.285 367.354
Na -225.687 126.384 480.607
Na 237.034 197.929 -247.885
O 58.6501 59.5972 68.0141
C 58.2026 59.8486 69.1448
C 57.3131 61.0981 69.3517
C 55.8839 61.5261 69.8412
C 55.3482 62.7631 69.105
C 55.0288 63.1082 67.6741
O 55.8411 63.9307 67.125
O 58.3625 59.2197 70.2157
O 53.9509 62.6738 67.2404
O 56.3063 62.5278 70.7022
C 54.8728 60.2938 69.9557
O 54.977 59.7755 71.0759
O 54.0021 60.0541 69.133
H 57.1404 62.9665 70.4261
Na -191.073 -64.3823 -107.165
Na 66.2126 72.8091 41.5086
Na 132.511 346.583 414.868
O 41.4904 36.6311 65.2328
C 40.9988 35.9716 64.3089
C 39.5246 35.7554 64.1137
C 38.5782 36.3998 63.1332
C 38.3568 35.8342 61.6764
C 37.3401 35.643 60.5432
O 37.4832 34.5758 59.9289
O 41.6583 35.3864 63.4741
O 36.4022 36.4943 60.4135
O 37.7623 35.9228 64.1587
C 38.1974 37.8889 63.3541
O 37.1982 38.2844 62.7513
O 38.9611 38.6198 64.0667
H 37.7212 36.5942 64.7984
Na -437.337 146.94 -441.006
Na -421.497 -77.304 197.628
Na 219.082 72.8103 60.9067
O 53.0395 28.7279 34.8813
C 52.3743 27.741 34.6495
C 51.2547 27.9581 33.6039
C 50.3054 28.7292 32.7231
C 49.0587 28.9103 33.5351
C 48.2315 28.7786 34.8114
O 47.0043 28.7682 34.5648
O 52.5396 26.5817 35.0437
O 48.7842 28.8177 35.9497
O 50.1723 27.3696 32.5142
C 50.8057 30.0891 32.1475
O 50.0768 30.5532 31.1842
O 51.8961 30.6639 32.5596
H 50.9306 27.0803 32.0544
Na 394.526 274.858 -175.087
Na 50.9764 90.4766 74.0564
Na 350.235 -380.178 -39.0525
O 70.0081 53.5775 66.2393
C 69.7466 52.3518 66.0863
C 70.7807 51.2928 66.0908
C 71.0831 50.0994 65.201
C 70.1317 48.9304 65.4743
C 69.2909 48.0569 66.3697
O 68.6335 47.1024 65.8861
O 68.6239 51.9137 65.9244
O 69.3842 48.3744 67.5823
O 71.8071 49.556 66.3023
C 71.2361 50.4509 63.7111
O 70.7828 51.5702 63.2663
O 71.9181 49.6778 62.9993
H 72.2579 48.7636 66.078
Na 40.9603 -320.476 439.964
Na 119.034 -261.293 419.298
Na 37.1717 54.4059 28.7539
O 52.3486 33.3656 30.4661
C 53.1648 32.5933 29.8932
C 53.7849 33.1684 28.5622
C 53.7532 33.3208 27.0576
C 52.4999 34.2277 26.6166
C 51.9024 35.2886 27.4498
O 50.7236 35.2581 27.6969
O 53.5315 31.4703 30.3119
O 52.6996 36.1736 27.9327
O 52.6837 32.5463 26.7261
C 54.9818 33.8275 26.3402
O 55.5208 32.906 25.6675
O 55.3425 35.0159 26.375
H 52.751 32.0584 25.8748
Na 212.955 -143.929 26.0568
Na -370.677 514.172 89.9753
Na 438.199 401.406 361.907
O 31.1398 59.1991 53.9232
C 30.8571 60.0317 53.0534
C 30.9774 61.4979 53.3638
C 31.8196 62.7701 53.5806
C 32.2348 63.0473 55.0474
C 33.1729 63.2379 56.2313
O 32.6991 63.3516 57.3803
O 30.5416 59.8255 51.8725
O 34.3949 63.0818 56.0195
O 30.4264 62.8809 53.3967
C 32.9407 63.0697 52.5686
O 33.7834 62.1668 52.4168
O 32.921 64.215 52.0141
H 30.2026 62.7698 52.4915
Na -449.782 -167.643 -251.147
Na 533.038 164.414 -119.173
Na -130.611 84.3425 96.6527
O 75.0602 37.8593 48.109
C 74.7421 37.8762 49.2939
C 75.8163 37.8271 50.3086
C 76.4694 38.5888 51.5162
C 77.2187 39.7878 50.9501
C 77.1349 41.1687 50.2748
O 76.8699 41.0836 49.0326
O 73.5871 37.8183 49.72
O 77.3824 42.2578 50.8929
O 77.5135 37.7993 51.8598
C 75.3941 39.1315 52.4572
O 75.456 38.7155 53.6862
O 74.5787 39.9916 52.0617
H 77.7373 37.9908 52.8013
Na -72.6489 -412.605 70.8379
Na 31.5424 62.6185 -367.056
Na -99.5732 -425.614 -98.6032
O 39.6583 32.0335 34.9962
C 40.0356 32.4237 33.867
C 41.1133 31.4862 33.2411
C 42.5005 31.2646 32.6466
C 42.8348 32.4816 31.7761
C 43.949 33.4924 31.717
O 43.692 34.5533 32.3123
O 39.8092 33.5738 33.3801
O 45.0213 33.1318 31.1285
O 41.6956 31.426 31.4588
C 43.4863 31.0475 33.697
O 44.046 29.9519 33.7003
O 43.8116 31.9525 34.4911
H 41.8644 30.6412 30.9149
Na 284.998 321.009 220.272
Na 418.85 -329.425 70.6487
Na 172.343 247.017 -248.501
O 56.3531 67.7553 33.4918
C 55.6742 68.5106 32.7652
C 55.951 68.5163 31.2592
C 55.7526 67.4919 30.1303
C 57.0434 67.1353 29.4093
C 58.2028 66.0879 29.2833
O 58.0414 65.2468 28.3689
O 54.703 69.1713 33.1226
O 59.1106 66.0394 30.1031
O 55.4598 68.6479 29.3748
C 54.946 66.3068 30.5754
O 53.778 66.1823 30.1227
O 55.5377 65.5371 31.3199
H 54.8332 68.4351 28.6932
Na -320.773 -198.776 -439.456
Na -95.7221 -390.999 26.9293
Na -202.234 34.8378 495.477
O 30.4152 48.6849 37.7304
C 30.8575 47.5946 37.3868
C 30.6333 47.2607 35.9004
C 31.1151 46.6835 34.5802
C 30.9963 47.7257 33.4455
C 31.9577 48.8145 32.9219
O 33.1361 48.5999 33.0313
O 31.5684 46.8035 38.0403
O 31.4159 49.8552 32.4639
O 29.9924 45.8169 34.895
C 32.5272 45.9786 34.6867
O 33.497 46.5579 35.2082
O 32.5153 44.7471 34.3697
H 30.1042 44.994 34.4127
Na -447.752 160.808 419.883
Na 190.588 -275.278 -239.842
Na 49.3453 77.2263 55.3851
O 77.4687 49.8371 48.7284
C 77.4205 50.9636 48.2243
C 77.9457 52.1553 48.9994
C 78.3809 52.8889 50.317
C 77.4184 53.9938 50.6551
C 76.1112 54.4479 51.2681
O 75.6781 53.8649 52.2819
O 76.9543 51.2074 47.1285
O 75.4953 55.3553 50.6519
O 79.307 53.7104 49.7237
C 78.6971 51.8229 51.4288
O 77.7464 51.4476 52.1057
O 79.9004 51.5671 51.7373
H 79.2006 53.5838 48.7853
Na 261.372 -82.0882 -46.3967
Na -39.0056 90.6884 -293.536
Na 461.187 -177.079 -441.696
O 58.4904 29.6513 59.5454
C 57.7298 29.0997 60.3512
C 57.3941 27.6362 60.0128
C 56.9228 26.516 59.052
C 55.4383 26.5961 58.6677
C 54.0487 26.8583 58.0826
O 53.4296 25.9296 57.605
O 57.3736 29.3128 61.5066
O 53.4987 28.0092 58.1993
O 56.6107 25.6913 60.1465
C 57.6935 26.5457 57.6775
O 57.9274 25.4332 57.118
O 57.9594 27.6343 57.1472
H 56.1075 26.2787 60.7278
Na -17.4619 365.788 154.959
Na -305.346 52.1632 1.72513
Na 32.1343 62.5148 35.7043
O 59.8615 71.8087 47.0312
C 58.799 72.5109 46.998
C 58.635 73.6506 48.0673
C 59.081 73.7201 49.5587
C 60.5317 73.3153 49.7731
C 61.3343 72.0578 50.2454
O 61.3101 71.704 51.4472
O 57.8552 72.4094 46.1835
O 61.9987 71.5471 49.3218
O 58.5079 74.9795 49.4511
C 58.2278 72.9545 50.5109
O 57.9559 73.4446 51.6241
O 57.9014 71.7834 50.1752
H 58.8435 75.552 50.11
Na 35.99 66.1562 53.7978
Na 60.6248 52.5413 17.6669
Na -154.683 -295.173 513.07
O 65.871 31.4741 39.3263
C 67.0895 31.3072 39.5211
C 67.8637 31.1801 38.2418
C 68.9575 32.1396 37.6277
C 68.2594 32.6872 36.3614
C 67.5704 33.3169 35.1981
O 66.6258 32.7334 34.7008
O 67.6174 31.0855 40.6115
O 68.0577 34.4196 34.8024
O 69.8563 31.3378 36.8875
C 69.4628 33.2946 38.4906
O 68.6313 34.0502 39.0906
O 70.6923 33.5087 38.6159
H 70.3081 31.8252 36.1882
Na 48.1482 60.9139 184.801
Na 54.905 214.473 -197.725
Na 484.116 -48.4677 -206.265
O 59.9918 49.2194 24.8333
C 59.8354 49.773 23.7173
C 60.7019 51.0685 23.521
C 61.6175 52.217 23.8717
C 62.6787 51.7696 24.9134
C 63.5154 52.2792 26.1532
O 63.1077 53.2818 26.7461
O 58.9658 49.5491 22.8349
O 64.5661 51.6347 26.4244
O 62.3546 50.9988 23.6518
C 60.7966 53.4509 24.071
O 60.9726 54.3183 23.2341
O 60.1216 53.5547 25.1197
H 62.1425 50.5482 24.4736
Na 46.5417 73.4395 61.4931
Na -128.3 389.59 127.527
Na 114.357 500.163 -205.37
O 38.3805 40.7309 66.2398
C 37.5645 41.5814 65.8462
C 37.5186 42.9043 66.6041
C 37.0914 44.3802 66.6994
C 38.0261 45.3148 67.5447
C 39.4252 45.8099 67.457
O 40.3564 45.0513 67.034
O 36.7114 41.4333 64.9668
O 39.6167 47.0372 67.7005
O 36.297 44.1616 67.8165
C 36.6533 44.9766 65.4121
O 35.44 44.9244 65.0729
O 37.5291 45.5714 64.7729
H 35.7585 43.4087 67.5605
Na 9.36102 201.892 -314.22
Na -426.622 -104.715 -30.0366
Na -25.7915 -125.512 470.035
O 75.2969 58.4241 47.8247
C 76.3043 57.8489 47.3463
C 76.8709 58.4747 46.1141
C 77.4072 58.7742 44.6787
C 76.5744 59.5564 43.7341
C 75.1436 59.5129 43.1899
O 74.3017 58.8278 43.8512
O 77.0103 57.0095 47.9394
O 74.8738 60.1088 42.1005
O 77.1082 59.7551 45.6345
C 78.0704 57.533 44.0876
O 77.3042 56.5816 43.6284
O 79.3233 57.5285 44.2804
H 77.101 60.5721 45.2477
Na -144.134 -385.76 279.012
Na 305.609 47.1694 -276.169
Na 29.5265 44.9059 53.5105
O 73.1282 48.0856 32.0761
C 72.0871 48.3678 31.4391
C 72.1136 49.5004 30.4556
C 72.0349 50.9933 30.3207
C 70.6643 51.2463 29.6892
C 69.1854 51.6139 29.5819
O 68.6824 52.4953 30.2777
O 70.9916 47.712 31.6453
O 68.5746 50.9799 28.6717
O 72.9279 50.7733 29.2304
C 72.4645 51.812 31.5865
O 71.6046 52.1244 32.462
O 73.6539 52.1752 31.618
H 73.583 51.4278 29.1572
Na 276.029 -316.256 -206.583
Na 172.617 -75.3626 -42.3034
Na -323.075 -288.085 -151.653
O 48.6393 67.4812 63.6613
C 49.2112 67.8817 64.7034
C 50.7228 68.1045 64.4506
C 52.2472 68.2152 64.1421
C 53.1316 67.3322 64.9454
C 54.0842 66.1291 65.0434
O 53.4987 65.1009 64.738
O 48.7394 68.0463 65.8457
O 55.2889 66.2712 65.107
O 52.705 69 65.1386
C 52.6801 68.3482 62.679
O 53.1445 67.3527 62.0969
O 52.4256 69.4336 62.0911
H 51.9741 69.5122 65.4716
Na 218.786 170.147 -282.159
Na -342.117 -399.98 -264.892
Na -377.237 -257.177 307.312
O 33.0753 52.7131 32.2571
C 33.5204 53.8135 32.6781
C 32.6475 54.6262 33.6794
C 32.423 55.9169 34.5458
C 31.5862 55.445 35.7018
C 31.7171 55.2598 37.213
O 31.0563 54.3534 37.7666
O 34.6766 54.2896 32.3738
O 32.5022 56.0371 37.8865
O 31.1221 55.5766 33.9286
C 33.6668 56.6418 35.0549
O 33.5736 57.8966 35.0093
O 34.6496 55.9702 35.2554
H 30.4638 55.7367 34.5224
Na -269.783 -219.723 462.11
Na -40.1423 10.1077 -79.0808
Na -36.2134 -117.353 350.245
O 47.6139 65.4911 30.102
C 46.494 65.0994 30.4525
C 45.4909 66.2453 30.5537
C 44.7781 67.1769 31.6321
C 43.3874 66.7432 32.0803
C 42.3293 66.036 32.7536
O 42.094 66.4016 33.9077
O 45.9888 63.9749 30.524
O 41.6803 65.2117 32.131
O 44.8295 68.1374 30.5873
C 45.7549 67.3885 32.8572
O 45.3912 68.3628 33.5358
O 46.5844 66.5156 33.2461
H 45.681 68.5168 30.5094
Na 427.804 500.891 379.256
Na 51.3539 62.6427 70.2148
Na -220.611 154.932 24.1383
O 63.853 26.0825 44.4925
C 62.9824 26.8718 43.993
C 63.0915 27.1294 42.5031
C 63.5796 27.2244 40.9932
C 62.5601 26.6658 39.9323
C 61.2571 26.8568 39.1306
O 61.4705 26.829 37.9121
O 62.0965 27.4809 44.6147
O 60.2475 27.27 39.7269
O 64.2718 26.1911 40.2881
C 63.9882 28.643 40.5599
O 65.0261 29.0705 41.1285
O 63.321 29.3755 39.7977
H 64.5664 26.5626 39.4213
Na 115.317 532.625 -123.98
Na 40.8406 75.7837 49.0381
Na 454.883 -318.492 522.999
O 67.8508 37.6006 64.0949
C 68.7772 37.378 63.2746
C 68.6985 35.9901 62.6035
C 68.5387 34.6569 61.7575
C 67.0719 34.551 61.3907
C 66.172 33.3715 61.0285
O 65.1661 33.2051 61.7148
O 69.4985 38.2268 62.7753
O 66.3686 32.6846 60.0348
O 68.1918 34.0925 63.0244
C 69.4178 34.8999 60.515
O 70.596 34.441 60.5557
O 69.0272 35.6964 59.6275
H 67.5095 34.6286 63.3928
Na 64.394 70.0951 30.5603
Na 234.987 352.204 215.759
Na 143.688 -221.854 151.965
O 61.1726 62.289 66.9215
C 61.9548 62.6435 66.0213
C 62.3839 64.1303 66.0481
C 62.7834 65.2194 64.9682
C 64.2951 65.3386 64.8085
C 65.4756 64.6709 64.0693
O 65.9085 65.4029 63.1217
O 62.4462 61.8709 65.1881
O 65.9585 63.5827 64.4683
O 61.6549 65.6452 65.8287
C 62.0454 65.0893 63.653
O 61.2507 65.9763 63.265
O 62.2363 64.0585 63.0217
H 60.79 65.4871 65.4242
Na -3.19231 301.281 -86.5817
Na -127.497 -134.764 60.8333
Na -37.7556 311.671 238.737
O 44.9642 24.4685 43.6221
C 44.8731 25.5116 42.9736
C 44.5771 25.5398 41.4572
C 45.0085 26.0069 40.0778
C 44.1491 26.9846 39.2796
C 43.5914 28.2024 38.5718
O 43.8188 28.4669 37.3613
O 44.7529 26.6235 43.5306
O 42.7547 28.8299 39.2685
O 44.1974 25.0767 39.4534
C 46.5198 26.2944 39.8881
O 47.0965 25.9816 38.8074
O 47.1469 26.7875 40.8307
H 44.6197 24.9482 38.6016
Na 38.2072 51.7073 68.1307
Na 305.424 -293.989 200.145
Na 169.452 -269.967 -439.702
O 49.2829 54.3264 71.6079
C 49.3057 55.4788 71.1029
C 49.5722 56.6497 72.0999
C 50.1519 58.1216 71.8222
C 48.9363 59.0274 71.2627
C 48.162 59.777 70.2153
O 48.7803 60.6675 69.5711
O 49.1268 55.7525 69.9103
O 47.0099 59.3532 69.8969
O 50.0741 57.7733 73.1885
C 51.5113 58.1798 71.0835
O 52.5587 58.0462 71.78
O 51.4976 58.1736 69.8233
H 49.3718 57.121 73.2957
Na -48.9731 68.592 249.268
Na -213.934 -329.996 525.688
Na 221.518 -112.994 -65.5947
O 67.5184 40.2234 28.9272
C 67.0122 41.0568 28.109
C 67.9383 42.0558 27.5064
C 67.9949 43.5356 27.7678
C 66.799 44.1499 27.0553
C 65.4707 44.766 27.2387
O 65.2776 45.7886 26.5453
O 65.892 40.8469 27.5927
O 64.7115 44.2462 28.0865
O 69.1215 43.6907 26.955
C 68.2597 44.0885 29.1737
O 67.567 43.6384 30.1348
O 69.1413 44.9917 29.2853
H 69.7907 43.4449 27.5505
Na -159.111 479.638 -439.875
Na -113.649 333.92 20.2092
Na -59.9237 172.756 316.154
O 44.743 47.8246 70.8506
C 45.1401 48.9944 70.9649
C 44.1688 50.092 71.3719
C 43.0442 51.1528 71.308
C 43.7952 52.435 70.8257
C 44.498 53.4471 69.881
O 45.6844 53.6315 70.1865
O 46.3056 49.3362 70.7169
O 43.817 54.0228 68.9778
O 42.2126 51.7303 72.3431
C 41.9799 50.5713 70.4577
O 41.5036 49.4498 70.6734
O 41.5168 51.2981 69.5353
H 41.6649 52.3656 71.8552
Na -156.999 271.733 59.809
Na 336.548 -158.803 -427.56
Na 431.23 477.339 -374.908
O 72.3106 51.7417 60.4121
C 73.2949 52.3268 60.8339
C 74.6766 51.7576 60.4761
C 75.6894 51.5026 59.3661
C 76.3253 52.8045 58.9322
C 76.4773 54.0977 58.1645
O 75.4315 54.7368 57.9691
O 73.3681 53.4155 61.3469
O 77.6175 54.3758 57.6594
O 77.0686 51.493 59.8147
C 75.0985 50.7197 58.1331
O 75.1242 49.476 58.2573
O 74.4138 51.292 57.2113
H 77.3836 52.3436 59.9944
Na -301.704 481.451 1.5962
Na 263.055 133.709 95.6653
Na 415.165 85.4684 -29.542
O 58.2414 71.0114 37.8163
C 59.3766 70.5309 38.0292
C 60.3101 71.5156 38.7653
C 61.2228 71.663 40.0378
C 60.4548 71.9191 41.3363
C 59.6534 71.886 42.6902
O 60.2845 72.0482 43.7668
O 59.6846 69.3255 38.0184
O 58.3916 71.6892 42.6708
O 61.6762 72.9657 39.733
C 62.3286 70.4632 40.1325
O 62.187 69.4312 39.3999
O 63.1511 70.5702 41.0276
H 62.2309 72.8166 39.0029
Na 71.752 546.491 -159.469
Na -324.214 -207.681 -271.576
Na 57.4369 176.23 -285.909
O 71.6916 42.5902 59.7635
C 72.4427 43.4353 60.3241
C 72.4411 43.4412 61.848
C 71.9959 42.7323 63.1433
C 71.8743 43.7887 64.1964
C 71.3367 44.8368 65.1046
O 72.0072 45.8179 65.3584
O 73.2561 44.2073 59.7238
O 70.1402 44.6036 65.4657
O 73.0249 42.1222 63.8737
C 70.7383 41.8867 62.9457
O 69.7211 42.5243 62.7235
O 70.8585 40.6719 62.7211
H 72.7296 41.8684 64.7793
Na 220.565 109.894 -100.44
Na 369.539 441.526 -36.0229
Na 205.018 344.779 446.029
O 74.8303 41.9188 38.0506
C 74.5446 42.5195 36.9741
C 74.0856 41.6652 35.7886
C 73.2144 40.8122 34.7838
C 72.7506 39.4328 35.3039
C 72.1452 38.4944 36.3656
O 72.9907 37.895 37.1369
O 74.7818 43.742 36.7323
O 70.9144 38.5286 36.4183
O 73.8819 40.3014 33.6374
C 72.0859 41.577 34.0738
O 72.4423 42.6148 33.4733
O 70.9124 41.2077 34.1998
H 73.4141 40.5241 32.8554
Na 92.338 -437.458 -342.819
Na 545.63 -391.977 -405.998
Na 374.724 159.659 410.465
O 69.8 56.8826 64.4401
C 69.4221 57.5108 65.4721
C 68.5734 56.764 66.5804
C 67.5348 56.2736 67.6053
C 66.6095 57.5131 67.8227
C 65.4587 58.5068 67.5172
O 65.6276 59.7219 67.6142
O 69.6958 58.6668 65.7718
O 64.4067 58.0252 67.1233
O 68.4063 55.3342 68.2743
C 66.6866 54.9748 67.2341
O 66.9964 54.1205 66.3518
O 65.5679 54.8229 67.8071
H 68.7104 54.67 67.6662
Na 548.629 -172.703 329.04
Na 40.4807 68.9127 41.6795
Na -346.715 6.66062 522.03
O 33.7236 34.1588 48.1805
C 33.792 34.5276 46.9794
C 32.4452 34.6516 46.2018
C 31.6327 35.672 45.5058
C 31.9433 35.6532 43.9929
C 31.9951 36.1664 42.5593
O 31.8885 37.4222 42.5321
O 34.7973 34.9067 46.3977
O 31.8059 35.4055 41.6112
O 30.7464 35.0781 46.3684