LAMMPS data file via write_data, version 21 Jul 2020, timestep = 100000

4325 atoms
8 atom types
126 bonds
8 bond types
152 angles
12 angle types
227 dihedrals
15 dihedral types
20 impropers
1 improper types

-100.0 100.0 xlo xhi
-100.0 100.0 ylo yhi
-100.0 100.0 zlo zhi

Masses

1 12.0107
2 1.00794
3 32.064999
4 12.0107
5 1.00794
6 0.1
7 55.845
8 196.967

Bond Coeffs # harmonic

1 222 1.81
2 268 1.529
3 340 1.09
4 317 1.51
5 367 1.08
6 469 1.44
7 50 2.06
8 100 1.22494

Angle Coeffs # harmonic

1 58.35 112.7
2 37.5 110.7
3 50 108.6
4 33 107.8
5 35 109.5
6 63 114
7 35 109.5
8 70 126
9 63 108
10 35 126
11 63 126
12 63 180

Improper Coeffs # harmonic

1 5 180

Atoms # full

540 4 8 0.131424 -27.41090118158878 -7.896934323242335 -25.091023958637336 0 0 0
275 4 8 0.131424 -27.507399174601566 -1.3267942183987247 -25.127440749320545 0 0 0
574 4 8 0.131424 -27.397673043705904 -4.632572755987272 -24.984222810203576 0 0 0
796 4 8 0.131424 -32.63692574691416 -16.016151356720005 -20.277316396844405 0 0 0
797 4 8 0.0 -35.28784004752115 -14.385099371741868 -19.259132463566633 0 0 0
799 4 8 0.131424 -35.39308483609004 -17.571600912022614 -19.244166026214565 0 0 0
859 4 8 0.0 -32.56516772669015 -12.802448321624318 -20.195399058433576 0 0 0
491 4 8 0.131424 -35.440055872096316 -12.806225280096097 -21.936320170355994 0 0 0
801 4 8 0.131424 -30.07317189165413 -17.7735945176453 -21.162013221149902 0 0 0
863 4 8 0.131424 -27.337359578974322 -16.18999800809057 -22.033482663484072 0 0 0
867 4 8 0.131424 -30.008255020023647 -14.396943116010188 -21.26071728712369 0 0 0
862 4 8 0.0 -27.243946909323288 -14.440061101639262 -19.300931753004377 0 0 0
1290 4 8 0.131424 -27.180799361704548 -17.79134825900649 -19.308052335690743 0 0 0
865 4 8 0.131424 -27.351737690516327 -12.80053272006003 -22.254776667179673 0 0 0
868 4 8 0.131424 -24.64267321127982 -14.568383664803303 -22.93116208890671 0 0 0
1289 4 8 0.131424 -24.540858756939894 -16.15847621857739 -20.193152005840307 0 0 0
1291 4 8 0.131424 -21.9017802977441 -14.483263434765755 -21.098901677674736 0 0 0
1329 4 8 0.0 -19.345196370763478 -14.459463693696856 -19.105611714476332 0 0 0
1612 4 8 0.131424 -19.363403235006462 -17.764902702980564 -19.302294066972635 0 0 0
861 4 8 0.0 -24.652829151844596 -12.785129949966777 -20.29205389991894 0 0 0
1331 4 8 0.131424 -19.174914132046244 -12.92256557198133 -22.12687141721497 0 0 0
1328 4 8 0.131424 -16.741417951778505 -12.917564090925513 -20.050463160454562 0 0 0
189 4 8 0.131424 -40.653190980609494 -9.3984421459845 -20.087866558080336 0 0 0
224 4 8 0.131424 -37.88865820568451 -7.715861720320017 -21.082178143874483 0 0 0
492 4 8 0.131424 -38.07040247555641 -10.982202207589827 -21.032458711641613 0 0 0
527 4 8 0.0 -32.66444598386063 -9.420074595867822 -20.196119392083023 0 0 0
529 4 8 0.0 -35.2479822052862 -7.798275449842218 -19.27862240248793 0 0 0
533 4 8 0.131424 -35.34762052827869 -9.476747080492308 -22.047271185856975 0 0 0
538 4 8 0.131424 -32.68904254339008 -7.953033304897316 -22.97395747223858 0 0 0
539 4 8 0.131424 -32.740041581577536 -11.193533244904533 -22.89578032408312 0 0 0
532 4 8 0.0 -35.18168969529402 -11.093209388376087 -19.333127961839615 0 0 0
528 4 8 0.0 -32.55728449257879 -6.263834149912278 -20.20287261695675 0 0 0
219 4 8 0.131424 -35.3101664825545 -6.239110003031351 -22.192671448193085 0 0 0
535 4 8 0.0 -29.878304118775997 -7.973611061419359 -21.237027645489686 0 0 0
536 4 8 0.131424 -29.947947968854013 -9.823615698743472 -24.06687863135425 0 0 0
866 4 8 0.0 -29.95309633061861 -11.13355807307254 -21.168380122815265 0 0 0
916 4 8 0.0 -27.352458465983215 -9.54959072088564 -22.190471308187664 0 0 0
922 4 8 0.0 -27.286207815668796 -7.8759219008390495 -19.33711522427483 0 0 0
864 4 8 0.0 -27.312190638036995 -11.198783088755656 -19.47171455130469 0 0 0
537 4 8 0.131424 -30.02880636737413 -6.293405297428339 -24.00066551915448 0 0 0
570 4 8 0.0 -27.27155112097354 -6.312537689755723 -22.284009717419398 0 0 0
869 4 8 0.131424 -24.640725067353618 -11.321926475541336 -23.252411396729205 0 0 0
920 4 8 0.0 -24.551828148770795 -9.605485072930062 -20.499298971671454 0 0 0
924 4 8 0.0 -21.95813534586409 -11.232010070206764 -21.396006427899017 0 0 0
925 4 8 0.0 -21.915635753904734 -7.972811664571014 -21.319614148027433 0 0 0
926 4 8 0.131424 -21.77903886254593 -9.716869369334155 -24.208726944525413 0 0 0
928 4 8 0.0 -24.60800292291725 -8.06108945645604 -23.333230992960782 0 0 0
1330 4 8 0.0 -19.321007650010948 -11.130417092891275 -19.26929961970598 0 0 0
1007 4 8 0.0 -19.361457674075442 -7.975154040579325 -19.387607060984326 0 0 0
923 4 8 0.131424 -19.235870411076974 -9.670600748701984 -22.30084831598848 0 0 0
927 4 8 0.131424 -21.795191511022328 -6.296120015707171 -24.171376957604412 0 0 0
1011 4 8 0.131424 -19.260755672756318 -6.2582036809051855 -22.196242339151944 0 0 0
921 4 8 0.0 -24.588532272262665 -6.276100211831816 -20.467865676727776 0 0 0
1388 4 8 0.131424 -16.677932171916225 -9.62797420859504 -20.234192697104266 0 0 0
1006 4 8 0.0 -16.618359222800144 -6.28881335903838 -20.470517589655916 0 0 0
225 4 8 0.131424 -40.61484078748501 -6.154052394127366 -20.110485406328728 0 0 0
227 4 8 0.131424 -40.64036987554081 -2.9372798129053725 -20.153374749995432 0 0 0
226 4 8 0.131424 -37.94297533403942 -1.3403080725774594 -21.040601052537845 0 0 0
221 4 8 0.131424 -37.91819804985143 -4.48719859683781 -21.183771186887146 0 0 0
218 4 8 0.0 -35.22015784205214 -4.62855485421007 -19.40928595327954 0 0 0
220 4 8 0.131424 -35.199183690679156 -2.8708923185538318 -22.06837071104281 0 0 0
228 4 8 0.131424 -32.56468145162481 -4.668581554314868 -22.986790916070056 0 0 0
262 4 8 0.0 -32.53329103280467 -3.09945283191933 -20.17214248598131 0 0 0
264 4 8 0.0 -35.18352930463433 -1.4067286873014402 -19.340159172560877 0 0 0
273 4 8 0.131424 -32.67491028435242 -1.470276570754141 -23.100460705498815 0 0 0
270 4 8 0.0 -30.035770811764486 -1.4432103489559438 -21.26576460578756 0 0 0
271 4 8 0.131424 -29.99766555910362 -3.125826072051279 -24.088133888476086 0 0 0
569 4 8 0.0 -27.195256904640384 -4.741892839760474 -19.355907033784298 0 0 0
571 4 8 0.0 -27.31816961949964 -3.1530844885476395 -22.168306113625118 0 0 0
572 4 8 0.0 -29.88172972677627 -4.684142841146532 -21.22683668656667 0 0 0
627 4 8 0.0 -27.30018897979693 -1.4892031451862264 -19.516402302391644 0 0 0
633 4 8 0.131424 -24.76156023291871 -1.5442792608934912 -23.277773358982376 0 0 0
573 4 8 0.0 -24.69247621310285 -4.784156823645939 -23.33578436581485 0 0 0
625 4 8 0.0 -24.67685577961079 -3.0719311319373954 -20.350209257076784 0 0 0
630 4 8 0.0 -22.064735289038207 -1.39157759773774 -21.388096064183582 0 0 0
631 4 8 0.131424 -22.083726311254118 -3.0662702645089013 -24.17411335820044 0 0 0
1013 4 8 0.0 -21.9318370779695 -4.630455225240111 -21.346697465509642 0 0 0
1010 4 8 0.0 -19.225485616393602 -4.6953732961494 -19.457615745048983 0 0 0
1009 4 8 0.0 -19.31872178013027 -1.3706946708847216 -19.655553085046176 0 0 0
1012 4 8 0.131424 -19.386151809941026 -2.996932955716436 -22.340006562422065 0 0 0
1008 4 8 0.0 -16.703523306800747 -2.9855841777760452 -20.568031601513184 0 0 0
789 4 8 0.0 -37.756483351649386 -19.139026783709806 -12.709177506845524 0 0 0
1243 4 8 0.131424 -35.19866959652805 -20.87131134170725 -13.530863296226663 0 0 0
1245 4 8 0.131424 -32.54860216187947 -22.502099945826554 -14.41967336144406 0 0 0
1248 4 8 0.131424 -32.40756404245951 -20.889604729519903 -17.18707786228979 0 0 0
1247 4 8 0.0 -32.58000902611017 -19.154391194258682 -14.521018376882246 0 0 0
795 4 8 0.131424 -35.31525186702125 -19.25651306673527 -16.498765610506435 0 0 0
1244 4 8 0.0 -29.771989526124212 -20.71121190990745 -15.332002837714288 0 0 0
1546 4 8 0.131424 -27.39256520104514 -24.108279084638855 -13.578134478264257 0 0 0
1548 4 8 0.131424 -27.3688494715798 -22.54411431446649 -16.45860282348633 0 0 0
1605 4 8 0.0 -27.262565095857166 -20.82625016905707 -13.452222180938513 0 0 0
1246 4 8 0.131424 -29.80342433392701 -19.15615687009617 -18.172439980611298 0 0 0
1281 4 8 0.0 -27.21430923037554 -19.214983433128776 -16.356450811900988 0 0 0
1282 4 8 0.0 -29.811709769816144 -19.093051679851698 -12.585957497240488 0 0 0
1549 4 8 0.0 -29.898368539062247 -22.442970204721387 -12.64441684077644 0 0 0
1610 4 8 0.131424 -22.0890172604986 -19.236915059039912 -18.282571017666292 0 0 0
1611 4 8 0.131424 -24.68790601841237 -20.82929996306365 -17.234881504018784 0 0 0
1600 4 8 0.131424 -24.768465290982615 -22.564124808147128 -14.503294806949738 0 0 0
1608 4 8 0.131424 -21.994587677855165 -20.873924260251837 -15.475507950293618 0 0 0
1606 4 8 0.131424 -19.38966634741521 -20.813521801518583 -13.464975648673676 0 0 0
1603 4 8 0.0 -24.6570152829529 -19.200825428576586 -14.375183851812341 0 0 0
1607 4 8 0.131424 -19.337477819511502 -19.176652442854373 -16.3022251319336 0 0 0
1595 4 8 0.0 -21.960577926110542 -19.20387222182432 -12.611633597094624 0 0 0
1594 4 8 0.131424 -22.052613538373915 -22.478200847983402 -12.665601177019322 0 0 0
1656 4 8 0.131424 -16.62500103764446 -19.047191878173486 -14.44887470847017 0 0 0
1987 4 8 0.131424 -13.94103763090987 -19.116912482335326 -12.554359432944247 0 0 0
800 4 8 0.131424 -38.20669105226752 -15.762062385170399 -18.283113700284254 0 0 0
484 4 8 0.131424 -43.142570153844126 -14.278855379268506 -13.72331082304665 0 0 0
489 4 8 0.131424 -40.77162215578121 -14.280465417684203 -17.2640493669465 0 0 0
793 4 8 0.131424 -40.43211704604395 -15.896859583522915 -14.495399544492031 0 0 0
790 4 8 0.0 -37.834059161126525 -14.317265635096211 -15.487040967645486 0 0 0
792 4 8 0.131424 -37.819335209906285 -17.55578111915547 -15.500488729394833 0 0 0
493 4 8 0.0 -37.83486052144017 -12.66461243330137 -18.221665028633705 0 0 0
488 4 8 0.0 -40.4616264246467 -12.68490165124428 -14.408344894677574 0 0 0
846 4 8 0.0 -37.77885509608346 -12.658496534810267 -12.688259029164259 0 0 0
490 4 8 0.131424 -43.35569759655379 -12.59287412744001 -16.52507110502527 0 0 0
791 4 8 0.0 -37.87434367212644 -15.84052453295453 -12.720675948303672 0 0 0
788 4 8 0.0 -35.11151930705232 -17.648665100072595 -13.510356855488325 0 0 0
794 4 8 0.0 -32.68001357936724 -17.657756010878842 -17.487728762363687 0 0 0
798 4 8 0.0 -35.250002040921764 -15.990853026720346 -16.40286170121595 0 0 0
845 4 8 0.0 -35.17607944655708 -14.381478716676806 -13.638101615965121 0 0 0
851 4 8 0.0 -32.52034294033714 -15.980424904549997 -14.601919343197167 0 0 0
858 4 8 0.0 -32.65490989563716 -14.354599303747284 -17.438568136738535 0 0 0
860 4 8 0.0 -35.26973406562956 -12.641800113148738 -16.41312019368925 0 0 0
856 4 8 0.0 -32.55908944778909 -12.724037423722748 -14.563290812523489 0 0 0
850 4 8 0.0 -30.028562317232645 -16.026546570960903 -18.440589508095808 0 0 0
848 4 8 0.0 -29.87116548265638 -14.264507125357305 -15.517609844048184 0 0 0
1279 4 8 0.0 -27.251169563427943 -17.45681131426806 -13.545268615924337 0 0 0
1283 4 8 0.0 -27.32890081404618 -14.374929116057446 -13.64800214602271 0 0 0
1284 4 8 0.0 -27.276007868304937 -15.991022029040977 -16.474614085744356 0 0 0
1286 4 8 0.0 -29.81212950550411 -17.464885667063758 -15.517763904523738 0 0 0
847 4 8 0.0 -27.169554267046514 -12.775706280754298 -16.582254909499436 0 0 0
853 4 8 0.0 -29.90081239146146 -12.80950746633687 -18.4009519445429 0 0 0
1285 4 8 0.0 -29.938602098278004 -15.816029646847914 -12.721101430163044 0 0 0
849 4 8 0.0 -29.90353488412535 -12.551221021827123 -12.710159469655636 0 0 0
1287 4 8 0.0 -24.659510205640323 -17.52810924539166 -17.344481767262977 0 0 0
1323 4 8 0.0 -21.95634930463269 -15.987282643927932 -18.22015398879509 0 0 0
1278 4 8 0.0 -24.667456471237177 -15.921303448036582 -14.614027201263312 0 0 0
1288 4 8 0.0 -24.552119693450035 -14.309101101978769 -17.40160775360129 0 0 0
1325 4 8 0.0 -22.01674064818933 -14.360881930864657 -15.437746600305033 0 0 0
1609 4 8 0.0 -22.046181971826936 -17.592941434171568 -15.437807078135364 0 0 0
1659 4 8 0.0 -19.40769079673472 -14.24045424944343 -13.629601652580842 0 0 0
1658 4 8 0.0 -19.218230377544675 -17.486162378780147 -13.521235453604392 0 0 0
1660 4 8 0.0 -19.34520488291409 -15.9990952150412 -16.244349980478496 0 0 0
1327 4 8 0.0 -21.93913417946048 -12.764511389338514 -18.37529402138988 0 0 0
1324 4 8 0.0 -19.312660553684683 -12.688086334222888 -16.347927279077368 0 0 0
1321 4 8 0.0 -24.615280057482753 -12.69446016576541 -14.656233565062507 0 0 0
1653 4 8 0.0 -22.014358027762697 -15.993492728265547 -12.659436444904129 0 0 0
1317 4 8 0.0 -21.934546450761992 -12.612399849584897 -12.729740708053905 0 0 0
1745 4 8 0.131424 -13.906032487379377 -12.768428332269142 -18.385403714289062 0 0 0
1657 4 8 0.0 -16.59182086986229 -15.781863967672187 -14.524786355074825 0 0 0
1661 4 8 0.131424 -13.930316907823341 -17.544581485247544 -15.323832069786365 0 0 0
1662 4 8 0.131424 -16.684121620303134 -17.537320897712593 -17.358519404839086 0 0 0
1663 4 8 0.0 -16.67886928394602 -14.343544921554212 -17.249142189870014 0 0 0
1742 4 8 0.131424 -13.90965645178597 -14.269004083764843 -15.51483026089268 0 0 0
1738 4 8 0.0 -16.70511188154136 -12.632203413251757 -14.490140817425798 0 0 0
1733 4 8 0.0 -14.094490065180088 -15.892387312657975 -12.60564111020859 0 0 0
1734 4 8 0.0 -14.003381854603793 -12.654757552801499 -12.664161030729403 0 0 0
1740 4 8 0.131424 -11.37042483229336 -14.320803717039897 -13.688450175532987 0 0 0
1741 4 8 0.131424 -11.073304353275075 -12.833051961702102 -16.534496918954872 0 0 0
486 4 8 0.131424 -45.87016545354099 -12.582737938514448 -12.680441684586443 0 0 0
186 4 8 0.131424 -45.96351752327355 -7.742702835110795 -15.544045318935646 0 0 0
187 4 8 0.131424 -45.680953984858704 -9.251033522268017 -12.692170406147348 0 0 0
188 4 8 0.131424 -43.109825710951306 -9.28157182061865 -16.35485959729052 0 0 0
207 4 8 0.0 -43.22220165384031 -7.7076627744662405 -13.653279320462158 0 0 0
481 4 8 0.0 -43.093508374675594 -10.956304080194794 -13.524881697203568 0 0 0
487 4 8 0.0 -40.509120012115055 -11.027859180300796 -17.244359783624024 0 0 0
519 4 8 0.0 -40.518754841682096 -7.684810706121045 -17.28269886073495 0 0 0
525 4 8 0.0 -40.50728550454981 -9.35592629428673 -14.464468614213377 0 0 0
524 4 8 0.0 -37.772404020291745 -11.050714400496481 -15.479599965735932 0 0 0
534 4 8 0.0 -37.84082347098652 -9.358308654325803 -18.3530685552063 0 0 0
521 4 8 0.0 -37.843506088371996 -7.826493069674188 -15.41163265376692 0 0 0
522 4 8 0.0 -37.84334201264745 -9.391725199760184 -12.754716073722872 0 0 0
520 4 8 0.0 -35.16676950900185 -7.794554880184875 -13.588488323922999 0 0 0
526 4 8 0.0 -32.535471572299706 -7.851151016464656 -17.463391148399676 0 0 0
530 4 8 0.0 -35.17220518824178 -9.459050373640588 -16.390301701203416 0 0 0
842 4 8 0.0 -35.13847500286641 -11.103986955195849 -13.561683714837146 0 0 0
855 4 8 0.0 -32.53783938187668 -11.126735962640748 -17.35866570213594 0 0 0
857 4 8 0.0 -32.555160621150115 -9.412468894304576 -14.589207307896695 0 0 0
852 4 8 0.0 -29.840778612010176 -11.172006695290387 -15.5679511200475 0 0 0
854 4 8 0.0 -30.038027624402076 -9.503475524627671 -18.386276959723386 0 0 0
908 4 8 0.0 -27.207857216447096 -11.054297017562114 -13.777621872719784 0 0 0
910 4 8 0.0 -27.20846798223548 -7.768140049342931 -13.802288050977724 0 0 0
911 4 8 0.0 -27.271808330112723 -9.528248305410871 -16.557520948673044 0 0 0
913 4 8 0.0 -29.923304335769156 -7.87627879465289 -15.553681441030726 0 0 0
914 4 8 0.0 -29.861896015398713 -9.375041018293112 -12.75002733732043 0 0 0
564 4 8 0.0 -29.92008441613633 -6.163153960990487 -18.373724190609686 0 0 0
915 4 8 0.0 -29.753346555829076 -6.24817869632751 -12.862251832099394 0 0 0
917 4 8 0.0 -21.96824722766998 -9.453018350104825 -18.49407410618959 0 0 0
907 4 8 0.0 -24.609579109645974 -9.447568464018419 -14.789742809169248 0 0 0
918 4 8 0.0 -24.68199669050645 -11.050542159457983 -17.564190619085032 0 0 0
919 4 8 0.0 -24.58027607211777 -7.874417582990585 -17.706316886166285 0 0 0
998 4 8 0.0 -21.98622105474741 -7.755250224346204 -15.755362344235289 0 0 0
1326 4 8 0.0 -21.9838780575114 -11.01254379154918 -15.641549528629943 0 0 0
1379 4 8 0.0 -19.212410742176672 -10.933458099423586 -13.611820575358188 0 0 0
1381 4 8 0.0 -19.400935882022633 -7.760108750147902 -13.792164603369091 0 0 0
1382 4 8 0.0 -19.352616105678827 -9.441763807983115 -16.52557570861435 0 0 0
1375 4 8 0.0 -21.945289878776453 -9.379721553030922 -12.909603869220543 0 0 0
997 4 8 0.0 -19.377963522484848 -6.184173834264911 -16.65138685579659 0 0 0
1384 4 8 0.131424 -13.945777310975233 -9.401774564208106 -18.523264333064628 0 0 0
1378 4 8 0.0 -16.624487285122843 -9.390918578641417 -14.748938537384115 0 0 0
1383 4 8 0.0 -14.132457186199353 -7.927637179699904 -15.816796635460754 0 0 0
1385 4 8 0.0 -16.55713195536564 -11.13933029295907 -17.437242046319817 0 0 0
1387 4 8 0.0 -16.69651499758362 -7.842414596568112 -17.573210636389902 0 0 0
1744 4 8 0.0 -14.01858338336511 -11.1715603266735 -15.650924985529327 0 0 0
1736 4 8 0.0 -13.999913761594128 -9.501989422602735 -12.867555142093574 0 0 0
1386 4 8 0.0 -14.043880964079431 -6.253274741502326 -18.550885509452087 0 0 0
1420 4 8 0.0 -13.918867536104951 -6.273620222553297 -12.903794840850427 0 0 0
1739 4 8 0.0 -11.313644234009523 -11.044333106115195 -13.7253036571212 0 0 0
1743 4 8 0.131424 -11.333396770627596 -9.663948009866091 -16.69859731782844 0 0 0
1798 4 8 0.131424 -8.580135307599512 -9.40395858999762 -14.762707022635581 0 0 0
1800 4 8 0.0 -11.425578320362593 -7.8906836704473085 -13.923182474232219 0 0 0
1424 4 8 0.131424 -11.423816729168761 -6.461125063616138 -16.658047772552464 0 0 0
93 4 8 0.131424 -45.87853825941512 -1.061538446683957 -15.472720079763214 0 0 0
211 4 8 0.131424 -45.83094362992262 -4.566773082998711 -15.577697523845009 0 0 0
210 4 8 0.131424 -45.733666028055026 -2.8185404469026194 -12.711857581676158 0 0 0
208 4 8 0.131424 -45.93380697826454 -6.02783447557714 -12.689098833007467 0 0 0
214 4 8 0.0 -40.49484528394249 -6.096554647174233 -14.56131628255391 0 0 0
222 4 8 0.0 -37.92599356112922 -6.114135928605683 -18.222209353883432 0 0 0
523 4 8 0.0 -37.90809472432328 -6.184462873662273 -12.666592691462878 0 0 0
216 4 8 0.131424 -43.15627994687933 -6.122994423742022 -16.53510780194068 0 0 0
202 4 8 0.0 -43.12641932272523 -4.440708684627992 -13.783122248987889 0 0 0
209 4 8 0.0 -43.079200419149586 -1.206039615313051 -13.71529326994766 0 0 0
213 4 8 0.0 -40.51190517793609 -4.547160588700222 -17.372191539139283 0 0 0
215 4 8 0.0 -40.54132051686799 -2.9078913974172944 -14.678655508546774 0 0 0
217 4 8 0.131424 -43.20724056940516 -2.852816416537048 -16.65611820868298 0 0 0
254 4 8 0.0 -40.45450946510039 -1.345514863887431 -17.494449537944316 0 0 0
223 4 8 0.0 -37.88121158952481 -2.9703926643287075 -18.378167511704465 0 0 0
212 4 8 0.0 -37.84809218926611 -4.489290113717834 -15.484647880087788 0 0 0
256 4 8 0.0 -37.82462858972048 -1.263697747088271 -15.559471304494535 0 0 0
257 4 8 0.0 -37.87268590540479 -2.9112840850203847 -12.742942094444677 0 0 0
531 4 8 0.0 -35.28154253634292 -6.204812701918955 -16.56774795776618 0 0 0
567 4 8 0.0 -32.577333226436615 -6.181276940317319 -14.63080617603949 0 0 0
255 4 8 0.0 -35.19311266522537 -1.2645906900527275 -13.75477869638133 0 0 0
261 4 8 0.0 -32.54663563124064 -1.3869404093710926 -17.482045700737043 0 0 0
265 4 8 0.0 -35.18117577728558 -2.906180772432462 -16.542493699991034 0 0 0
560 4 8 0.0 -35.20195486852788 -4.477245637783628 -13.788453993961296 0 0 0
566 4 8 0.0 -32.57414987377102 -4.661626900661086 -17.450602016346238 0 0 0
568 4 8 0.0 -32.48777753504699 -2.9423412687103228 -14.756922085884442 0 0 0
912 4 8 0.0 -27.22347829435059 -6.163537140142085 -16.529826995035343 0 0 0
563 4 8 0.0 -29.8296008773463 -4.524545622954039 -15.570070280095779 0 0 0
565 4 8 0.0 -29.90577810887091 -3.0159433472601593 -18.44058612014695 0 0 0
615 4 8 0.0 -27.30349929704071 -1.2513368880030484 -13.837001060042086 0 0 0
616 4 8 0.0 -27.25384505383352 -2.933660703272743 -16.596108386742447 0 0 0
618 4 8 0.0 -29.898367957143606 -1.1904536498168465 -15.648853766814137 0 0 0
993 4 8 0.0 -27.156667015519098 -4.478166216005352 -13.730385874685586 0 0 0
619 4 8 0.0 -29.9762792295886 -3.0098104887829673 -12.891347432632589 0 0 0
1002 4 8 0.0 -21.9202596251272 -6.180442002266442 -18.630054373782993 0 0 0
991 4 8 0.0 -24.599707570593033 -6.215196204171671 -14.786639609098327 0 0 0
984 4 8 0.0 -21.915082235102645 -6.122859235215157 -12.871183790359208 0 0 0
1003 4 8 0.0 -21.92413811971329 -2.9756774831268786 -18.637836562588564 0 0 0
624 4 8 0.0 -24.681498229223546 -1.3765956080194908 -17.614980162961807 0 0 0
992 4 8 0.0 -24.62371873164599 -2.967059472870251 -14.826811666699575 0 0 0
996 4 8 0.0 -19.269135335338234 -4.548680498788423 -13.861101634818153 0 0 0
999 4 8 0.0 -19.320903745986893 -2.986095090490818 -16.77459073124127 0 0 0
1000 4 8 0.0 -21.995989808568943 -1.3516604770120397 -15.794084221230053 0 0 0
1001 4 8 0.0 -21.95192738201882 -4.575548835258138 -15.685021406239919 0 0 0
1004 4 8 0.0 -24.483087764897753 -4.577927145828135 -17.62781381789016 0 0 0
1063 4 8 0.0 -19.447022686866436 -1.3418765154866736 -13.921264712012848 0 0 0
987 4 8 0.0 -21.956944687711722 -3.00595045416333 -12.92830243968804 0 0 0
1380 4 8 0.0 -16.727750714095496 -6.116236677927667 -14.715578917722631 0 0 0
1066 4 8 0.0 -14.16451214632714 -2.9832065142272484 -18.79681478909216 0 0 0
1005 4 8 0.0 -16.668606734595997 -4.583966626191237 -17.693225091234275 0 0 0
1060 4 8 0.0 -16.733299046377887 -3.0149532670627495 -14.932275615881565 0 0 0
1065 4 8 0.0 -14.174025433556588 -1.4840853483632042 -15.907049817208856 0 0 0
1069 4 8 0.0 -16.73097673154022 -1.3812260892990007 -17.756613433073987 0 0 0
1426 4 8 0.0 -14.04245961170019 -4.630344088166964 -15.831610952117115 0 0 0
1421 4 8 0.0 -14.205356334466893 -3.0323694125247314 -13.029125557945628 0 0 0
1799 4 8 0.131424 -8.791957492897865 -6.12003133822714 -14.835855678306185 0 0 0
1423 4 8 0.0 -11.31636295108082 -4.684162032424833 -13.870462557858932 0 0 0
1425 4 8 0.131424 -11.405157833222349 -3.085445435042864 -16.90017614085747 0 0 0
1478 4 8 0.131424 -8.80016946903025 -2.966219717442527 -14.874222708956014 0 0 0
1481 4 8 0.0 -11.47030494978938 -1.474163414459105 -13.99115673374255 0 0 0
1543 4 8 0.131424 -32.57986725501185 -25.478618147330984 -8.656537124703844 0 0 0
1542 4 8 0.131424 -29.958760390375016 -25.506053770028416 -6.786941221285603 0 0 0
1547 4 8 0.131424 -27.54806776052844 -25.685999820612032 -10.602779773007875 0 0 0
1958 4 8 0.131424 -24.578347109768654 -25.907499491313548 -8.743486597299798 0 0 0
1956 4 8 0.131424 -22.057717976802383 -25.542927115682843 -6.810189919014355 0 0 0
1238 4 8 0.0 -37.92672966620179 -20.712765636079908 -9.82837995667847 0 0 0
1236 4 8 0.131424 -37.84949318365478 -22.21642553658159 -7.021476094338945 0 0 0
781 4 8 0.0 -40.41452346530778 -19.069171225018888 -8.756628182196634 0 0 0
1237 4 8 0.0 -37.81124387381801 -18.995001061750404 -6.983119703181618 0 0 0
1234 4 8 0.0 -35.13994688980744 -20.614524486607316 -7.882603102653923 0 0 0
1240 4 8 0.0 -32.57284860477993 -20.77317984094187 -11.678589763703979 0 0 0
1241 4 8 0.131424 -35.304471239942245 -22.28158975368535 -10.591526270175908 0 0 0
1539 4 8 0.131424 -35.307953372908145 -23.820665256104007 -7.881377232361852 0 0 0
1544 4 8 0.0 -32.58962418109699 -22.256891077514787 -8.76258821967281 0 0 0
1545 4 8 0.131424 -32.622502879823045 -23.927710967049688 -11.573289470212645 0 0 0
1274 4 8 0.0 -32.57345083072442 -18.992182963575626 -8.807865166865547 0 0 0
1242 4 8 0.0 -35.283121829052114 -19.147475673103877 -10.69919602021214 0 0 0
1541 4 8 0.0 -29.95736263177489 -23.960570273096845 -9.584565941054317 0 0 0
1585 4 8 0.0 -27.207376818470976 -20.760073606129378 -7.890380798609499 0 0 0
1588 4 8 0.0 -27.239744785955622 -23.95581287674089 -7.887557569300159 0 0 0
1589 4 8 0.0 -29.970138378128514 -22.17558009336436 -6.859972282927444 0 0 0
1592 4 8 0.0 -29.883547608162882 -20.64262096978037 -9.861582563066861 0 0 0
1601 4 8 0.0 -27.32489434089433 -22.38831451464532 -10.634197228842417 0 0 0
1604 4 8 0.0 -27.234545464880032 -19.15278154800163 -10.72684678121125 0 0 0
1591 4 8 0.0 -29.8255332071926 -19.048895912349927 -7.019383560303722 0 0 0
1599 4 8 0.131424 -24.748542123236827 -24.206773300753383 -11.555198464088663 0 0 0
1593 4 8 0.0 -22.05548798129714 -20.732963002825258 -9.766148974273072 0 0 0
1596 4 8 0.0 -24.671486040212358 -20.91080226284298 -11.640929947752 0 0 0
1597 4 8 0.0 -24.620086339203755 -22.4361314443261 -8.889947032077426 0 0 0
1955 4 8 0.131424 -22.03248247423461 -24.07678411073585 -9.815853716472109 0 0 0
1957 4 8 0.0 -21.830819134016263 -22.20247961412235 -6.982943948918827 0 0 0
1983 4 8 0.0 -19.236525818653003 -20.6717824173003 -7.917102574675092 0 0 0
1954 4 8 0.131424 -19.42040101862346 -22.302507179541863 -10.649360992805498 0 0 0
1953 4 8 0.131424 -19.356256078847498 -24.041620150974072 -7.971743446258344 0 0 0
1650 4 8 0.0 -22.023511864649112 -19.038897275915563 -6.929317244796303 0 0 0
1598 4 8 0.0 -24.608850301551943 -19.12125113141418 -8.860009707887054 0 0 0
1647 4 8 0.0 -19.316501582715585 -19.091126930816998 -10.671600053644795 0 0 0
1988 4 8 0.131424 -16.703022085241674 -20.758613880751728 -11.496607052015998 0 0 0
1981 4 8 0.131424 -16.658434673819666 -22.452406547640415 -8.785831675469794 0 0 0
1986 4 8 0.131424 -13.954411975997635 -20.63850251436654 -9.686141022654786 0 0 0
2134 4 8 0.131424 -13.917224745850449 -22.30801615194253 -6.8704113197011525 0 0 0
1982 4 8 0.0 -16.6856184494493 -18.993894687382554 -8.824689099235973 0 0 0
2023 4 8 0.0 -14.01115094600348 -19.054590308831596 -7.035385055179577 0 0 0
485 4 8 0.131424 -46.07385714627889 -14.354979997148973 -9.93372785505244 0 0 0
778 4 8 0.131424 -45.80016204307598 -15.904816450532325 -7.123436921691427 0 0 0
479 4 8 0.0 -45.85634082331669 -12.488474862670657 -7.24150813736123 0 0 0
782 4 8 0.0 -40.495360953912126 -14.222605912568264 -11.657335316599115 0 0 0
783 4 8 0.0 -40.50404948970947 -15.755669599024674 -8.701451528028818 0 0 0
784 4 8 0.0 -43.101066746945115 -14.227610594118227 -7.930510733542089 0 0 0
785 4 8 0.0 -40.488893281399015 -17.37574778888235 -11.553331485892398 0 0 0
786 4 8 0.131424 -43.12540567103493 -17.581083258948336 -7.910675947869949 0 0 0
787 4 8 0.131424 -43.20941625594563 -15.930389010825781 -10.761688743941914 0 0 0
835 4 8 0.0 -37.921051836564395 -14.193288129259166 -9.821160355758053 0 0 0
779 4 8 0.0 -37.86031986386994 -17.30761392460938 -9.82314068250536 0 0 0
828 4 8 0.0 -37.808209367919176 -15.714603449570903 -6.955603827459064 0 0 0
837 4 8 0.0 -40.494871126068944 -12.424972084137469 -8.803121280657901 0 0 0
482 4 8 0.0 -43.08977098634389 -12.590393417713022 -10.774226669926524 0 0 0
825 4 8 0.0 -35.2643428644338 -14.181737300191157 -7.9748636390073235 0 0 0
838 4 8 0.0 -32.58539492009533 -14.255630844007328 -11.713978375614547 0 0 0
840 4 8 0.0 -35.323121032397914 -15.943700164131066 -10.778285770599227 0 0 0
1270 4 8 0.0 -35.24986512837842 -17.40009384257396 -7.842116684801364 0 0 0
1276 4 8 0.0 -32.57485337385589 -15.893834079153441 -8.882159585172797 0 0 0
1277 4 8 0.0 -32.510603716828804 -17.49415478237221 -11.677535066750997 0 0 0
843 4 8 0.0 -35.145357897201215 -12.716424605550998 -10.769597459030182 0 0 0
839 4 8 0.0 -32.56071870930573 -12.686001985883907 -8.868592312226921 0 0 0
1272 4 8 0.0 -29.878611266558647 -17.48047030575161 -9.861650997957286 0 0 0
1273 4 8 0.0 -29.893436922105185 -15.901790028021809 -7.096985663355193 0 0 0
1275 4 8 0.0 -29.939168757211917 -14.272015775114614 -9.930434335129222 0 0 0
1280 4 8 0.0 -27.318737595624295 -15.890508105518599 -10.760416681701166 0 0 0
1313 4 8 0.0 -27.24705687417339 -14.056391800699572 -8.089427927262173 0 0 0
1590 4 8 0.0 -27.25761270694247 -17.431252140582668 -8.03375743603869 0 0 0
1322 4 8 0.0 -27.321662658064472 -12.62302677629394 -10.911829004763712 0 0 0
1316 4 8 0.0 -29.906695720178437 -12.585694559451277 -7.057974649853259 0 0 0
1318 4 8 0.0 -24.65024440582149 -14.313660966114398 -11.822120345340627 0 0 0
1602 4 8 0.0 -24.665738452694868 -17.521535426601627 -11.610424008943793 0 0 0
1646 4 8 0.0 -19.373561577180194 -17.425041775804107 -7.977177642027642 0 0 0
1648 4 8 0.0 -19.285860915971217 -15.795395669384174 -10.824274290221831 0 0 0
1649 4 8 0.0 -21.99145754892818 -17.4841270790317 -9.89319850559896 0 0 0
1651 4 8 0.0 -21.99117119714265 -15.889436206071577 -7.123263263864727 0 0 0
1652 4 8 0.0 -22.018430244773935 -14.259511385748763 -9.909663547759026 0 0 0
1654 4 8 0.0 -24.671695902870393 -15.887549122702175 -8.97286281807484 0 0 0
1722 4 8 0.0 -19.456588516474987 -14.173974121868328 -8.040680530396672 0 0 0
1728 4 8 0.0 -19.26467795500678 -12.571605734019785 -10.895138944255267 0 0 0
1319 4 8 0.0 -24.559324581276393 -12.600660872798846 -9.067460855288846 0 0 0
1729 4 8 0.0 -22.061048169976118 -12.563336090374682 -7.102738394414763 0 0 0
1655 4 8 0.0 -16.75670217715722 -17.448422993364687 -11.675731859124916 0 0 0
1720 4 8 0.0 -16.747768114591373 -15.764119218240982 -8.874395439725882 0 0 0
1732 4 8 0.0 -14.06967872039934 -14.239407695304802 -9.823617681771484 0 0 0
1735 4 8 0.0 -16.70288469120009 -14.259292510997103 -11.673925166629482 0 0 0
2024 4 8 0.0 -14.077552214329971 -15.783651396205899 -7.076208932066685 0 0 0
2032 4 8 0.0 -14.168890394722077 -17.481606313452325 -9.865996348781188 0 0 0
1716 4 8 0.0 -14.11607721973592 -12.663406260035439 -7.0670861681065436 0 0 0
2033 4 8 0.131424 -8.737710465062746 -14.12598668319511 -11.851603962456423 0 0 0
2028 4 8 0.131424 -8.53858565580475 -15.802187160109971 -9.178288860030802 0 0 0
2029 4 8 0.0 -11.350689914832353 -14.160102208209606 -8.173037356155186 0 0 0
2030 4 8 0.131424 -11.503073751929085 -17.418364493087054 -8.041306165179167 0 0 0
2031 4 8 0.131424 -11.351699593626131 -16.015121436176965 -10.977750964908068 0 0 0
1730 4 8 0.0 -11.34033068589834 -12.544393535967636 -10.932425721536834 0 0 0
2060 4 8 0.131424 -8.715402480793369 -14.05557351732935 -6.356399341355991 0 0 0
2061 4 8 0.131424 -8.691647875339191 -12.394716538125218 -9.105323563592671 0 0 0