thermo 10000
thermo_style custom step temp epair pe etotal c_c1[1] c_c1[2]  c_c1[3] c_c2[1] c_c2[2]  c_c2[3] v_Rg c_pe12 c_pe23
thermo_modify flush yes

run ${runtime}
run 4000000
WARNING: More than one compute ke/atom (src/src/compute_ke_atom.cpp:55)
WARNING: More than one compute ke/atom (src/src/compute_ke_atom.cpp:55)
WARNING: More than one compute ke/atom (src/src/compute_ke_atom.cpp:55)
Neighbor list info ...
  update every 1 steps, delay 0 steps, check yes
  max neighbors/atom: 2000, page size: 100000
  master list distance cutoff = 12.5
  ghost atom cutoff = 12.5
  binsize = 6.25, bins = 32 32 32
  6 neighbor lists, perpetual/occasional/extra = 4 2 0
  (1) pair lj/cut/coul/cut, perpetual, skip from (6)
      attributes: half, newton on
      pair build: skip
      stencil: none
      bin: none
  (2) pair lj/cut, perpetual, skip from (6)
      attributes: half, newton on
      pair build: skip
      stencil: none
      bin: none
  (3) pair morse, perpetual, skip from (6)
      attributes: half, newton on
      pair build: skip
      stencil: none
      bin: none
  (4) compute group/group, occasional, copy from (6)
      attributes: half, newton on
      pair build: copy
      stencil: none
      bin: none
  (5) compute group/group, occasional, copy from (6)
      attributes: half, newton on
      pair build: copy
      stencil: none
      bin: none
  (6) neighbor class addition, perpetual
      attributes: half, newton on
      pair build: half/bin/newton
      stencil: half/bin/3d/newton
      bin: standard
Per MPI rank memory allocation (min/avg/max) = 25.9 | 26.21 | 27.42 Mbytes
Step Temp E_pair PotEng TotEng c_c1[1] c_c1[2] c_c1[3] c_c2[1] c_c2[2] c_c2[3] v_Rg c_pe12 c_pe23 
       0    213.11049   -160826.46    -160771.8   -158025.01   -27.184915   -4.3643113   -2.5553697    48.474674   -4.3361375   -2.1673866    9.7381495   -34.105692   -184.93197 
   10000    218.34925    -160765.6   -160707.74   -157893.43   -27.182631    -4.361265   -2.5512792    48.474318   -4.3415723   -2.1625759    9.8298337    -28.55517   -187.79464 
   20000    217.01919    -160759.5   -160700.89   -157903.73   -27.174927   -4.3511964   -2.5607236    48.471568   -4.3469158   -2.1724032    9.7209157   -28.543472   -183.66649 
   30000    206.56045   -160775.25   -160722.93   -158060.57   -27.181194   -4.3415797   -2.5579622    48.469126   -4.3535009   -2.1643576    9.7406086   -33.096272    -184.2735 
   40000    215.12113   -160800.58   -160738.78   -157966.08   -27.169351    -4.344132   -2.5740144      48.4674   -4.3391487     -2.17238    9.7105518   -28.176058   -182.93921 
   50000     213.8531   -160773.94      -160714   -157957.64   -27.162428   -4.3455944    -2.569726    48.468459   -4.3329924   -2.1577308    9.8254817   -32.615251     -184.672 
   60000    213.77621   -160728.57   -160672.59   -157917.22   -27.149074   -4.3440796   -2.5627619    48.468615   -4.3339257   -2.1620713    9.7191599   -34.142161   -179.97884 
   70000    212.38589   -160772.74   -160721.25    -157983.8   -27.161589   -4.3416889   -2.5652787    48.465493   -4.3209493   -2.1770931    9.7341677   -31.698882   -186.84092 
   80000    213.31091   -160752.79    -160688.1   -157938.73   -27.170808   -4.3453249   -2.5687282    48.471959   -4.3203047   -2.1824607    9.8090002   -34.652462   -182.46114 
   90000    217.59548   -160771.23   -160710.02   -157905.43   -27.162325   -4.3438852   -2.5655562    48.465537   -4.3226115    -2.193832    9.8569721   -31.173179   -186.41902 
  100000     214.6862   -160787.11   -160727.82   -157960.73   -27.167135   -4.3437545   -2.5735818    48.466817   -4.3155543   -2.1970464    9.7594351   -31.705956   -188.25821 
  110000    216.07365   -160776.52   -160715.39   -157930.41   -27.159312   -4.3473012   -2.5762263    48.453709   -4.3102323   -2.2019313    9.7242649   -29.776043   -189.68263 
  120000    213.57691   -160770.24   -160714.37   -157961.58   -27.156326   -4.3511989   -2.5829172    48.441379   -4.3036256   -2.2052121    9.7399228   -28.539709   -190.80288 
  130000     212.0263   -160729.68   -160668.03   -157935.22    -27.15795   -4.3348373   -2.5914677    48.447541   -4.2928823   -2.2088831    9.7524289    -29.68964   -189.50373 
  140000    215.58597   -160793.44   -160732.68   -157953.99   -27.161669    -4.344174   -2.5869772    48.444499   -4.2911847   -2.2155562    9.8681885   -32.605719   -195.46625 
  150000    213.69591   -160745.11    -160689.9   -157935.57   -27.172982   -4.3419149   -2.5839478    48.450803   -4.2996236   -2.2149182     9.712444   -30.589571   -183.40493 
  160000    213.56758   -160779.02   -160722.37   -157969.69   -27.177859   -4.3365848   -2.5862328    48.438689   -4.3090739   -2.2175158    9.7158393   -31.545689   -185.13365 
  170000    213.86323   -160800.71   -160739.36   -157982.87   -27.181104   -4.3393837    -2.589885    48.428723   -4.2943714   -2.2227232    9.6771979   -30.597588   -186.38826 
  180000    214.37354   -160778.25   -160718.08   -157955.02     -27.1788   -4.3463546    -2.582382    48.434091   -4.2828013   -2.2201415     9.803377   -29.887795   -188.84023 
  190000      213.254   -160752.08   -160697.35   -157948.71   -27.157435   -4.3566172   -2.5822234    48.426026   -4.2844317   -2.2318883    9.6913226   -28.002454   -183.02589 
  200000    213.81054   -160771.27   -160716.03   -157960.22   -27.157432   -4.3559185   -2.5681681    48.423102   -4.2929524   -2.2392523    9.7048175   -30.700896   -185.78904 
  210000      217.303   -160773.38   -160711.93    -157911.1   -27.153008   -4.3621981   -2.5771952    48.425005    -4.284011   -2.2421866    9.7643868   -28.409605   -188.03473 
  220000    215.17013   -160835.31   -160779.73    -158006.4   -27.151992   -4.3433689   -2.5769345    48.422772   -4.2848592   -2.2449358    9.7021194   -31.512026   -183.85068 
  230000    211.88764   -160777.08    -160711.3   -157980.27   -27.144378   -4.3459796   -2.5792268    48.414759   -4.2864145   -2.2576454    9.7258196   -33.631695   -186.72886 
  240000    215.36323   -160815.66   -160757.97   -157982.15   -27.134309   -4.3570943   -2.5808048    48.424544   -4.2820222   -2.2394905    9.6515601   -23.935982   -187.12844 
  250000     211.3463   -160803.67   -160739.06   -158015.02   -27.130398   -4.3522235   -2.5835107     48.42474   -4.2812654   -2.2376714    9.7017658   -27.971463   -190.43797 
  260000    213.00343   -160792.08   -160731.65   -157986.24   -27.138731   -4.3633738   -2.5937468    48.430088   -4.2845101   -2.2383227    9.8177687   -27.867348   -184.70614 
  270000    213.92351   -160785.99   -160736.14   -157978.88   -27.136176    -4.365123   -2.5966961    48.437534   -4.2901828   -2.2288736     9.664117   -25.287335   -185.56175 
  280000    212.99271   -160805.94   -160745.39   -158000.12   -27.123401   -4.3434513   -2.5929358    48.440536   -4.2868943   -2.2283526    9.6800956    -29.27905   -192.57103 
  290000    219.59371   -160752.14   -160695.73   -157865.38   -27.130393   -4.3335467   -2.5951717    48.439704   -4.2907966   -2.2249567    9.7934373    -30.62632   -186.07014 
  300000    215.19739   -160791.43   -160729.26   -157955.58   -27.137301   -4.3345982   -2.5949324    48.427285   -4.2894975    -2.226133    9.8112275   -28.931381   -182.36315 
  310000    209.13158   -160778.59   -160712.66   -158017.16   -27.140532   -4.3271138   -2.5835674    48.422343   -4.2880848    -2.241293    9.7543593   -30.658577   -185.34385 
  320000     212.9329   -160770.29   -160718.39   -157973.89   -27.135001   -4.3308466   -2.5851615    48.415393   -4.2826099   -2.2295661    9.7673242   -32.615178   -185.46289 
  330000    218.07637   -160777.33   -160721.26   -157910.47   -27.133678   -4.3255551   -2.5911531      48.4143   -4.2916717   -2.2327099    9.6988098   -28.751333   -190.96288 
  340000    216.84877   -160784.95   -160721.82   -157926.85   -27.131939   -4.3260863   -2.5922979    48.424181   -4.2922638   -2.2282121    9.7729391   -30.651505   -188.29314 
  350000    216.64206   -160819.79    -160763.7   -157971.39    -27.14763   -4.3367069    -2.589562    48.411729   -4.3001113   -2.2294612    9.7058227   -29.474659   -185.09027 
  360000    213.11055   -160783.94   -160726.46   -157979.67   -27.144899   -4.3182436   -2.6085924    48.420888   -4.2948318   -2.2313217    9.7742766   -32.706361   -184.88359 
  370000    213.76443   -160759.93   -160690.92   -157935.71   -27.148413   -4.3105519   -2.6117939    48.424072   -4.3003943   -2.2437429    9.7358399   -30.082852   -184.04263 
  380000    212.31006   -160815.78   -160755.91   -158019.44   -27.143896   -4.3126488   -2.6245211    48.428526   -4.2891675   -2.2384501    9.7097048   -30.437477    -185.5086 
  390000    216.74884   -160778.66   -160720.67   -157926.99   -27.143462   -4.3190911   -2.6240287    48.427282    -4.299622   -2.2344767    9.6994543   -29.522741    -189.2779 
  400000    215.28476   -160765.88   -160716.82   -157942.01   -27.157152    -4.326974   -2.6317165    48.409851   -4.2989948   -2.2382894    9.6311794   -30.655174   -182.65667 
  410000    212.57572   -160806.06   -160745.41   -158005.52   -27.147221   -4.3173411   -2.6405462    48.404399   -4.3026583   -2.2390388    9.7023742   -28.706662   -193.54269 
  420000    217.52496   -160784.11   -160728.37   -157924.68   -27.151083   -4.3215554   -2.6354668     48.41281   -4.3098802   -2.2427868    9.7316664   -30.235775   -195.74329 
  430000      210.839   -160819.25   -160760.71    -158043.2   -27.147605    -4.317108   -2.6218218    48.409147   -4.3177034   -2.2329309    9.7586188   -30.606397   -193.23997 
  440000    214.62515   -160769.89   -160710.52   -157944.21   -27.151717   -4.3095532   -2.6287749    48.422955   -4.3228018   -2.2385115    9.6490975   -31.390319   -187.03802 
  450000    215.72778    -160753.9   -160695.24   -157914.72   -27.150166    -4.295695     -2.62743    48.429989   -4.3283011   -2.2282674    9.7555572   -31.723132   -191.28259 
  460000    211.19623   -160754.11   -160694.08   -157971.97   -27.152161   -4.2904858   -2.6300444    48.419416    -4.326687    -2.221322    9.7316555   -29.012953   -187.93663 
  470000    217.94117   -160799.38   -160740.41   -157931.36   -27.154378   -4.2962916   -2.6157897    48.414963   -4.3282224   -2.2240663    9.6615783   -31.265845   -184.08343 
  480000    214.47908   -160736.47   -160674.43   -157910.01   -27.155015   -4.3067928   -2.6262988    48.412805   -4.3360268   -2.2359003    9.7563676   -30.861581   -195.16836 
  490000    210.09271   -160749.09    -160690.9   -157983.01   -27.164909   -4.3075386   -2.6162497    48.419601   -4.3283288   -2.2470868    9.7271029   -27.874636   -188.55146 
  500000    212.86331   -160784.41   -160727.05   -157983.45   -27.162209   -4.3071845   -2.6174376     48.42281   -4.3320863   -2.2463865    9.7390431   -27.174021   -188.27871 
  510000    211.62644   -160810.34   -160751.31   -158023.66   -27.159067   -4.3084902     -2.63189    48.414755   -4.3306558   -2.2501869    9.8263237   -33.179965   -179.59283 
  520000    212.01176   -160797.39   -160750.94   -158018.32   -27.163967   -4.3215014   -2.6199499    48.426593   -4.3363199   -2.2418306    9.6948246    -22.37429   -174.76056 
  530000    217.23795   -160789.89      -160740   -157940.02   -27.147664   -4.3289728   -2.6131431    48.440442   -4.3448884   -2.2480413    9.7460706   -31.250498    -186.5404 
  540000    212.56515   -160786.07   -160729.07   -157989.31   -27.166599   -4.3264906   -2.6008229    48.436676   -4.3526461   -2.2475757    9.7838904   -26.446978   -186.50508 
  550000    216.04045   -160809.31   -160750.31   -157965.76   -27.166876   -4.3310163    -2.603858    48.439334   -4.3483576    -2.254392    9.8150942   -30.903539   -191.06011 
  560000    211.47687   -160762.26   -160699.15   -157973.42   -27.179087   -4.3339667   -2.6143547    48.439352   -4.3491486   -2.2485685    9.6686535   -26.058904   -185.84466 
  570000    210.02439   -160787.08   -160729.45   -158022.44   -27.167657   -4.3440976    -2.608203    48.431777   -4.3526985   -2.2472641    9.7142576   -30.209642   -188.42578 
  580000    213.15256   -160747.55   -160688.98   -157941.65    -27.16474   -4.3418937   -2.6059734    48.425766   -4.3508124   -2.2653492    9.6951149   -24.198695   -192.85779 
  590000     215.4401   -160748.95   -160691.78   -157914.97   -27.169056   -4.3439529   -2.6025247    48.424057    -4.351166    -2.261257    9.7364554    -27.47833   -190.13733 
  600000    208.36062   -160757.34    -160705.7   -158020.14   -27.171289   -4.3395345   -2.6014258    48.418178   -4.3518734   -2.2581562    9.7298303   -32.288729   -186.58074 
  610000    213.34426   -160729.88   -160670.43   -157920.63   -27.176225   -4.3341108   -2.5965912     48.41578   -4.3578245   -2.2538451    9.8256018   -31.205358   -190.86592 
  620000    214.84669   -160793.17   -160738.07    -157968.9   -27.173407   -4.3269036   -2.5975347    48.414244   -4.3506173   -2.2596461    9.7155532   -32.006641   -188.82591 
  630000    208.64347   -160831.91   -160777.18   -158087.97   -27.167276   -4.3230584   -2.5951063    48.423775   -4.3387799   -2.2484201    9.7584353   -31.937964   -189.77626 
  640000    210.22122   -160782.14   -160725.38   -158015.83    -27.17307   -4.3221735   -2.6135741    48.419227   -4.3199507   -2.2532458    9.7371813   -32.220828   -183.60259 
  650000    210.19836   -160727.96   -160671.33   -157962.08   -27.166548   -4.3179898    -2.605696    48.423347   -4.3256971   -2.2520929    9.7320271   -30.584468   -181.50084 
  660000    216.88845   -160783.49    -160729.2   -157933.72   -27.168255   -4.3161921   -2.6104917    48.416022   -4.3187525   -2.2503826    9.7592111   -32.293763    -181.1714 
  670000    218.22435   -160834.36   -160772.36   -157959.66   -27.176706   -4.3189239   -2.6173283    48.421056   -4.3180249   -2.2482761    9.8031261   -33.086167   -184.34508 
  680000    218.85241   -160796.89   -160736.98   -157916.19   -27.186926   -4.3018742   -2.6190205      48.4281   -4.3145192   -2.2436472    9.7576815   -29.043774   -188.26744 
  690000    217.66426   -160789.34   -160735.71   -157930.23   -27.196853   -4.2801653   -2.6170542    48.429802    -4.292277    -2.240921    9.7452482   -30.240266   -185.70883 
  700000    220.07915   -160735.75   -160670.05   -157833.45   -27.198718   -4.2864878   -2.6266148    48.430532    -4.297707   -2.2465011    9.8195251   -31.178407   -189.69074 
  710000    215.80942   -160756.67   -160695.63   -157914.06   -27.181666   -4.2871086   -2.6288896    48.423925   -4.3003924   -2.2388502    9.7779327   -31.893997   -187.22855 
  720000    217.34809   -160767.31   -160709.58   -157908.18   -27.192818    -4.289383   -2.6109769    48.428653   -4.2902083   -2.2387303    9.7696907   -32.386391    -183.2383 
  730000    216.21058   -160803.29   -160736.34   -157949.59   -27.187386   -4.2853432   -2.6109523    48.442576   -4.3007815   -2.2487673    9.8119149   -27.639507    -191.4362 
  740000    217.28659   -160763.51   -160708.34   -157907.73   -27.196929    -4.287841   -2.6070145    48.432252   -4.3003112   -2.2314984    9.7334807    -30.99966   -183.17419 
  750000    216.77103   -160731.16   -160676.34   -157882.37   -27.209087   -4.2871174   -2.5991455    48.435239   -4.3060551   -2.2371853    9.7219922   -29.180874   -185.09563 
  760000    218.17346   -160806.09   -160753.01   -157940.96   -27.202476   -4.2818774   -2.5898273    48.442317   -4.3055887   -2.2270968    9.7059956   -31.612933   -179.73354 
  770000    214.16431   -160801.66   -160743.36   -157982.99   -27.186582   -4.2832911   -2.5897205    48.429272    -4.310161   -2.2196535      9.74123   -30.924403   -185.97786 
  780000    212.59563   -160855.73   -160801.27   -158061.12   -27.182293   -4.2695239   -2.5848766    48.433138   -4.3077606   -2.2127537    9.7643877   -29.020656   -181.20917 
  790000    220.54496   -160725.86   -160669.74   -157827.13   -27.184254   -4.2704782   -2.5779361    48.426562   -4.2969705   -2.2228524    9.7356155   -29.142436   -179.90245 
  800000    215.21414   -160799.02   -160739.23   -157965.33   -27.188275   -4.2548846   -2.5678391    48.421321   -4.2852216   -2.2090381    9.8222522   -33.763411   -184.70873 
  810000     212.6539   -160784.41   -160728.16   -157987.26   -27.183627   -4.2476017     -2.55763    48.413237   -4.2949843   -2.2082741     9.818208   -31.353889   -187.38669 
  820000    215.92882   -160812.58    -160755.8   -157972.69   -27.175836   -4.2395953   -2.5512379    48.408466   -4.2909405   -2.2060709    9.7580147     -31.7122   -183.80038 
  830000     218.7972   -160786.95   -160733.99   -157913.91   -27.174638   -4.2336529   -2.5613542      48.3999   -4.2865131   -2.1961839    9.7558692   -30.292714   -186.59145 
  840000    216.99814   -160729.17   -160671.37   -157874.47   -27.180904   -4.2297313   -2.5567476    48.401238   -4.2743386   -2.1964675    9.7763181   -29.689544   -185.08025 
  850000    215.73918   -160745.28    -160686.9   -157906.23    -27.17276   -4.2247943   -2.5624496    48.403065   -4.2728381   -2.2019543    9.6965643   -29.837235   -186.85417 
  860000    222.67742   -160791.47   -160733.55   -157863.46   -27.178528   -4.2354537   -2.5713701    48.403479    -4.269668   -2.1961263    9.7225298   -31.712856   -187.73846 
  870000    217.25365   -160700.39   -160643.12   -157842.93   -27.183256   -4.2343263   -2.5752781    48.399084   -4.2696734   -2.1979909    9.6806708   -26.671666   -186.87549 
  880000      213.658   -160776.01   -160715.25    -157961.4   -27.192435   -4.2347672   -2.5665913    48.398383   -4.2681745   -2.1941859    9.7672626   -32.504917   -190.16584 
  890000    215.17541   -160786.66   -160727.51   -157954.11   -27.189241   -4.2413699   -2.5673231    48.404096   -4.2688143   -2.1971796    9.7843695   -28.195554   -183.37069 
  900000    217.24382    -160760.5   -160698.11   -157898.04    -27.18216   -4.2479572   -2.5649017    48.411481   -4.2586781   -2.1947453    9.6897686   -30.316311   -183.51933 
  910000    215.47887   -160714.98   -160652.44   -157875.13   -27.170583    -4.241112    -2.575985    48.416878   -4.2564853   -2.1953631    9.7326512   -28.255267   -183.81958 
  920000    217.91938    -160807.2   -160741.54   -157932.77    -27.18325   -4.2505922   -2.5638097    48.409601   -4.2608161   -2.1907903    9.8480729   -31.600848   -186.64088 
  930000    210.81314   -160832.46   -160772.09   -158054.92   -27.184984    -4.254646    -2.555423    48.419782   -4.2680165   -2.1954987    9.8107851   -31.228838   -186.36516 
  940000    214.55576   -160784.99   -160718.88   -157953.47   -27.186362   -4.2584863   -2.5560921    48.418021   -4.2809224   -2.2011484    9.8424117   -27.161858   -186.74809 
  950000     210.9901   -160795.18   -160727.31   -158007.86    -27.18504   -4.2632309   -2.5601345    48.414768   -4.2844615   -2.1978883     9.799414   -31.047918   -186.13379 
  960000    212.71727   -160756.38   -160694.23   -157952.51   -27.171663   -4.2774524   -2.5688064    48.425143   -4.2879617   -2.2067388    9.7129458   -29.344222   -187.82652 
  970000    217.32058   -160845.98    -160781.4   -157980.35   -27.171993   -4.2817617   -2.5587094    48.430352   -4.2813856   -2.2173869    9.7576016   -31.841671   -186.92686 
  980000    217.57025   -160750.89   -160681.16   -157876.89   -27.178721   -4.2914241   -2.5692384    48.424575   -4.2834083   -2.2197843    9.7973462   -31.635541   -191.19674 
  990000    215.97171   -160735.75   -160674.84   -157891.17   -27.184223   -4.2866409   -2.5746582    48.430023   -4.2890038   -2.2139517    9.7631707   -29.444056   -190.20669 
 1000000    215.34028   -160842.52   -160776.08   -158000.56   -27.186255   -4.2837219   -2.5697973    48.441466   -4.2915559   -2.2225235     9.766009   -26.809242   -186.05503 
 1010000    212.76783   -160771.88   -160715.37      -157973   -27.195057   -4.2799977   -2.5513471     48.43526   -4.2848402   -2.2291443    9.7024096   -28.044739   -185.30622 
 1020000    216.03061   -160768.26   -160704.92    -157920.5   -27.191276   -4.2852102    -2.546706    48.422624   -4.2861128    -2.228695    9.7432083   -34.006897   -184.45201 
 1030000    215.00295   -160812.47   -160754.61   -157983.44   -27.188536   -4.2709129   -2.5554546    48.420521   -4.2810299   -2.2283239    9.7159827   -29.683818    -179.3083 
 1040000    217.53763   -160768.65   -160711.21   -157907.36   -27.185038   -4.2721048   -2.5496044    48.410255    -4.287277   -2.2289713    9.7230916   -35.681817   -179.47374 
 1050000    212.99352    -160769.4   -160704.65   -157959.37   -27.191871   -4.2875644    -2.549601    48.419261    -4.278679   -2.2196949    9.7752403   -32.470574   -190.23166 
 1060000    217.16355   -160825.55   -160762.32    -157963.3   -27.185386   -4.2800456   -2.5444918    48.411365   -4.2681751   -2.2105154    9.7865469   -30.083601   -192.49312 
 1070000    217.41542   -160790.94   -160727.05   -157924.78   -27.181171   -4.2909176   -2.5345484    48.423107    -4.262472   -2.2053338    9.8869442   -31.948941   -190.22717 
 1080000    212.65915   -160735.03   -160670.61   -157929.64   -27.166948    -4.281479   -2.5417829    48.414575    -4.265539   -2.1947832    9.7702413   -29.726581   -186.39652 
 1090000    221.50495   -160773.13      -160705   -157850.02   -27.164632    -4.290179   -2.5435289    48.421503   -4.2609185   -2.1963834    9.7919155   -29.315561   -191.46641 
 1100000    214.46275   -160745.77   -160673.63   -157909.42   -27.168024   -4.2860359   -2.5372801    48.420975   -4.2548923   -2.2003514    9.7722419   -30.419185   -189.05274 
 1110000    210.95686   -160806.29   -160742.99   -158023.96   -27.167841   -4.2742552   -2.5344413    48.427044   -4.2487564   -2.1946772    9.8085115   -32.358188   -183.61356 
 1120000    208.71052   -160774.97   -160706.85   -158016.78   -27.172248   -4.2688946    -2.532332    48.435292   -4.2428605   -2.1885483    9.7497871   -27.941219   -184.89928 
 1130000    213.93053   -160811.73   -160749.53   -157992.17   -27.179645   -4.2707596   -2.5235971    48.430774    -4.253387   -2.1952401    9.7345814   -32.373378   -181.65815 
 1140000    218.73587   -160764.59   -160703.04   -157883.75   -27.177144   -4.2730765   -2.5349275    48.434536   -4.2427062   -2.1942604    9.7877142   -32.371112   -186.29135 
 1150000    213.83876   -160821.24   -160761.96   -158005.79   -27.176796    -4.271303   -2.5469129    48.432118   -4.2405047   -2.1930774    9.8431995    -32.47593    -183.9137 
 1160000     214.8123    -160768.6   -160704.39   -157935.67   -27.177929   -4.2769007   -2.5488591    48.437412   -4.2293082   -2.1945302    9.7591293   -31.415526    -181.3574 
 1170000    217.29277   -160827.37   -160761.28   -157960.59   -27.167647    -4.274437    -2.537879    48.436072   -4.2316915   -2.1994941    9.7602624    -30.28622   -193.21625 
 1180000    216.57001    -160778.4   -160711.75   -157920.37   -27.166406   -4.2681845   -2.5353681    48.439284   -4.2321321   -2.1907152    9.6747062   -28.449212   -185.22427 
 1190000    216.98535   -160837.09   -160773.41   -157976.69   -27.165017   -4.2597022   -2.5365294     48.44191   -4.2414711   -2.2001095    9.7130383   -29.979852    -191.7141 
 1200000    217.69042   -160778.75   -160719.81   -157913.99   -27.176136   -4.2548377   -2.5351986     48.44677   -4.2544213   -2.2021559    9.7773225   -30.598763   -191.22744 
 1210000      211.185   -160825.53   -160765.36   -158043.39    -27.18044   -4.2646509   -2.5357601    48.455549   -4.2600348    -2.198849    9.7949875   -32.691841   -192.48291 
 1220000    216.03041   -160816.75   -160754.76   -157970.34   -27.178219    -4.271049   -2.5353315    48.463019   -4.2650188   -2.2006726    9.7703908   -28.811751   -185.14029 
 1230000    217.16434   -160824.96   -160764.48   -157965.45    -27.18865   -4.2719966   -2.5348871    48.463826   -4.2608423   -2.2005394    9.7903936   -29.229023   -184.47239 
 1240000    214.36429   -160775.53      -160713   -157950.06   -27.186293   -4.2798318   -2.5541637    48.458136   -4.2741844   -2.2070387    9.8348936   -36.027597   -181.61801 
 1250000    213.39058   -160754.22   -160687.63   -157937.23   -27.198545   -4.2631609   -2.5574534    48.463082   -4.2715572   -2.1968605    9.8261059   -32.224664   -184.46046 
 1260000    219.10916   -160832.76   -160768.01   -157943.91   -27.214596   -4.2681637   -2.5547375    48.463507   -4.2792845    -2.196149    9.8210506   -31.653569   -183.56594 
 1270000    221.71451   -160801.82   -160738.46   -157880.77   -27.222016   -4.2673692   -2.5589999    48.456814   -4.2780148   -2.1920114    9.8766218    -30.17378   -187.19423 
 1280000    215.50558   -160786.98   -160726.46    -157948.8   -27.219683   -4.2593934   -2.5573698    48.447915   -4.2713944   -2.1831542    9.7787926   -29.525634   -188.17068 
 1290000    216.21927   -160767.93   -160707.86   -157921.01   -27.203078   -4.2607399   -2.5637563    48.438958   -4.2662477   -2.1809886    9.8533754   -32.013968   -182.27538 
 1300000    219.50535   -160773.46    -160710.9   -157881.69   -27.200748   -4.2558711   -2.5741792    48.436443   -4.2601819   -2.1933815     9.898264   -33.022317    -187.4255 
 1310000    215.42193   -160769.73    -160709.4   -157932.82   -27.198566   -4.2459433   -2.5705934    48.433178   -4.2597372   -2.1976332    9.7927065   -25.717118   -190.79582 
 1320000    219.34182   -160746.17   -160686.62   -157859.52   -27.195498   -4.2425221    -2.567068    48.441597   -4.2621708   -2.2018282     9.792958   -28.990482   -186.10112 
 1330000    216.53989   -160823.75   -160762.26   -157971.27   -27.203241   -4.2448546    -2.561917    48.444411   -4.2554228   -2.2072306    9.8186232   -28.542302   -186.07501 
 1340000    218.53198   -160774.67   -160714.66      -157898   -27.195066   -4.2384719   -2.5567396    48.440122   -4.2569799   -2.2027972    9.7730402   -32.771328    -185.1124 
 1350000    215.73456   -160766.95   -160709.52   -157928.91    -27.19552   -4.2390175   -2.5517174    48.437997   -4.2605078   -2.2077084    9.7758211   -30.589625   -189.68408 
 1360000    214.42524   -160835.45   -160771.99   -158008.26   -27.188221   -4.2478924   -2.5495978    48.445144   -4.2661704    -2.210287    9.7843334   -31.780413   -186.01847 
 1370000    217.99994   -160793.05   -160729.58   -157919.78   -27.186923   -4.2538499   -2.5571102    48.454716   -4.2686615   -2.2044657    9.7703231   -29.143425   -182.90775 
 1380000    216.41499   -160753.25   -160694.35   -157904.97   -27.177169   -4.2516118   -2.5528656    48.458995   -4.2744156   -2.1954366    9.7539039   -30.173439   -182.60459 
 1390000    207.79545   -160822.55   -160767.31   -158089.03   -27.181144   -4.2614116    -2.552089    48.461342   -4.2828869   -2.1988562     9.794567   -29.107801   -182.88335 
 1400000    214.00325   -160749.09   -160685.24   -157926.95   -27.185292    -4.256754   -2.5452368    48.470538   -4.2737465   -2.1982103    9.8356863    -31.41932   -181.99334 
 1410000    215.38743   -160825.13   -160765.02   -157988.88   -27.179546   -4.2705355   -2.5517031    48.475156   -4.2779543   -2.1972133    9.7651685   -31.148981   -181.86183 
 1420000    211.60202   -160765.47   -160704.29   -157976.95   -27.169589    -4.258822   -2.5574828    48.466159   -4.2740781   -2.1896748    9.7722365   -30.812795   -191.47068 
 1430000    216.52836   -160850.32   -160782.86   -157992.03   -27.171733   -4.2544537   -2.5713825    48.467063   -4.2654389   -2.1929056    9.8466848   -28.866627   -191.16562 
 1440000    213.83683   -160787.77   -160725.61   -157969.46   -27.162224   -4.2608793   -2.5737867     48.46111   -4.2548789   -2.1884915    9.7619641   -31.519613   -179.60494 
 1450000    213.06014   -160767.08   -160713.15   -157967.01   -27.149454   -4.2551637   -2.5750453    48.452794   -4.2463326    -2.193443    9.7495863   -28.361654   -187.28582 
 1460000    214.33338   -160776.31   -160708.48   -157945.94   -27.150808   -4.2503403   -2.5766696      48.4603   -4.2542991   -2.1876786    9.8326377   -31.863202   -190.91468 
 1470000    217.93371   -160721.02   -160659.83   -157850.88   -27.159951   -4.2620289   -2.5726094     48.45632   -4.2546307   -2.1909225    9.7591606   -26.622934    -184.8774 
 1480000    217.66006   -160766.81   -160702.96   -157897.53   -27.161303   -4.2620908   -2.5884223     48.46703   -4.2679426   -2.1877266    9.7103324   -25.467689   -188.30548 
 1490000    214.33027   -160810.12   -160745.05   -157982.54   -27.154972   -4.2669249   -2.5795653    48.468037   -4.2659056   -2.1880494    9.7672966   -29.320998   -186.32385 
 1500000    213.42983   -160749.14   -160683.22   -157932.32   -27.150932     -4.27337   -2.5877409    48.471716   -4.2724461   -2.1912519    9.8087075   -29.832451   -188.08773 
 1510000    219.07935   -160789.08   -160723.29   -157899.57   -27.140167    -4.266986    -2.591706    48.476885   -4.2733269   -2.1973291    9.8193386   -31.132638   -189.65845 
 1520000    220.32648   -160775.46   -160712.61   -157872.81   -27.138352   -4.2593362   -2.5993934     48.46445   -4.2854816   -2.2048491    9.7448417   -30.439538    -187.0734 
 1530000    219.85943   -160725.33   -160661.54   -157827.77   -27.119122   -4.2770378   -2.5938707    48.460651   -4.2794887   -2.2017009    9.8065859   -33.519061   -192.71694 
 1540000    211.58571   -160780.75   -160722.73    -157995.6   -27.118317   -4.2748609   -2.5915053    48.456033   -4.2774732   -2.1951711    9.7711331   -32.092871   -187.14775 
 1550000    213.25687   -160738.06   -160684.17   -157935.49   -27.132047   -4.2848519    -2.593172    48.450548   -4.2836165   -2.1911401    9.7452627   -27.837705   -181.65821 
 1560000    213.22047   -160850.15   -160786.62   -158038.42   -27.140952   -4.2811905    -2.597492    48.449822    -4.277129   -2.1829011    9.7034703   -28.954091   -182.94562 
 1570000    216.66514   -160817.73   -160753.91   -157961.31     -27.1388    -4.282907   -2.5924112     48.45267   -4.2632208   -2.1862572    9.7695663   -27.084594   -187.27663 
 1580000    220.47164   -160801.35   -160740.85   -157899.19   -27.146006   -4.2780381   -2.5927601    48.447406   -4.2633535   -2.1885792    9.7713941   -30.081061   -184.20427 
 1590000    213.32843   -160747.76   -160683.13   -157933.54   -27.157379   -4.2781916   -2.5826757    48.439001   -4.2474793   -2.1945284    9.8165115   -32.666067   -192.33584 
 1600000     217.1097    -160781.2   -160708.19   -157909.86   -27.158828   -4.2850618   -2.5979625    48.447738   -4.2507776   -2.1979356     9.759989   -30.030164   -188.80949 
 1610000    215.28666    -160835.1   -160775.59   -158000.76   -27.168972   -4.3000129   -2.5959751    48.447951   -4.2503209   -2.1930016    9.7095953   -26.631979   -189.86046 
 1620000    215.01921   -160803.46   -160732.16   -157960.77   -27.167287   -4.2940917   -2.5917858    48.450613   -4.2586972   -2.1864064    9.8268476   -36.145576     -189.691 
 1630000    216.06574   -160734.01   -160667.91   -157883.03   -27.156206   -4.3028959   -2.5982947    48.446044   -4.2464411   -2.1910256    9.6935168   -31.544608   -186.25662 
 1640000       220.64   -160821.53   -160757.27   -157913.43    -27.14833   -4.2946431   -2.5971712    48.445554   -4.2528886   -2.1910354    9.6895018   -31.562017    -181.9902 
 1650000    213.91382   -160769.99   -160699.51   -157942.37    -27.15488   -4.2991246   -2.5935347    48.445408   -4.2612568   -2.1827514    9.7861266   -27.055503   -190.66634 
 1660000    217.39079   -160794.64   -160725.49   -157923.54   -27.156948   -4.2921924   -2.5824553    48.448723   -4.2643262   -2.1809118    9.6900966   -27.883936   -193.89102 
 1670000    212.99516   -160754.28    -160686.1    -157940.8   -27.160219   -4.3020395   -2.5832034    48.454175   -4.2708423    -2.183893    9.8144275   -25.647654   -192.71767 
 1680000    214.41453   -160784.12   -160725.67   -157962.07   -27.160352   -4.3064804   -2.5765758    48.466337   -4.2722609    -2.182178    9.7135612   -29.062613   -187.67178 
 1690000    214.32503   -160839.37   -160772.66   -158010.22   -27.163082   -4.3196969    -2.567334    48.475217   -4.2649875   -2.1817647      9.82528     -31.4533    -188.2791 
 1700000    215.73525   -160761.33   -160707.48   -157926.86   -27.161158   -4.3196112   -2.5494277    48.482028   -4.2574733    -2.177966    9.7419125   -30.088476   -185.51299 
 1710000    215.03575   -160778.39   -160719.99   -157948.39   -27.163206   -4.3292404    -2.541195     48.48631   -4.2510283   -2.1752044     9.844315    -27.74297   -190.06461 
 1720000    212.70091    -160830.8   -160775.85   -158034.35   -27.164888   -4.3189277   -2.5461736    48.497762   -4.2416562   -2.1846297    9.7401514   -31.561362   -191.05248 
 1730000    214.33357   -160759.93   -160696.16   -157933.61   -27.169732   -4.3113885   -2.5538318    48.489645   -4.2482921   -2.1910959    9.7270076   -26.009996   -191.71342 
 1740000    214.76485   -160820.46   -160757.91    -157989.8   -27.174976   -4.3208338   -2.5672563    48.476523   -4.2290108   -2.1963597    9.7439908   -28.593882   -183.52483 
 1750000    209.09349    -160818.4   -160753.98   -158058.97   -27.163588   -4.3306898   -2.5682894    48.479209   -4.2416338   -2.1884035    9.7460157   -26.380121   -195.21123 
 1760000    216.87992   -160764.51   -160703.34   -157907.97   -27.162505    -4.331369   -2.5643089    48.478385   -4.2444336   -2.1826422    9.8015281   -26.558985   -188.99159 
 1770000    215.68244   -160784.58   -160720.88   -157940.94   -27.158669   -4.3282535   -2.5646832    48.492174   -4.2500677   -2.1848546    9.8186157   -29.971716    -189.6389 
 1780000    213.54722   -160715.33   -160649.97   -157897.56   -27.152193    -4.334915   -2.5772531    48.492363   -4.2559513   -2.1795089    9.6924171   -34.514176   -183.87064 
 1790000    215.07028   -160673.52   -160609.54   -157837.49   -27.159098   -4.3355441    -2.573562     48.48926   -4.2526186   -2.1687181    9.7083978   -29.903988   -187.79398 
 1800000    217.21259    -160823.2   -160763.08   -157963.42   -27.166308   -4.3371514   -2.5705758    48.488842   -4.2559192   -2.1741843    9.7546662   -35.237827   -185.58645 
 1810000     215.0555   -160818.86   -160753.46   -157981.61   -27.160808   -4.3420049   -2.5753039    48.483269   -4.2519825   -2.1807781    9.7552345   -33.822697   -184.62409 
 1820000    211.18915   -160808.86    -160745.7   -158023.68   -27.151787   -4.3462109   -2.5786215     48.48679   -4.2632724   -2.1687639    9.7513112   -30.085919   -185.65801 
 1830000    212.55156   -160784.41   -160720.06   -157980.48   -27.163643   -4.3439099   -2.5758198    48.492738   -4.2670713   -2.1670315    9.8702696   -30.107976   -188.76966 
 1840000    218.20157   -160791.35   -160723.87   -157911.47   -27.155127   -4.3398772   -2.5786195    48.498837   -4.2726411   -2.1813156    9.7892983   -28.912129   -187.09134 
 1850000    213.61366   -160787.43   -160719.98   -157966.71    -27.14716   -4.3493562   -2.5651924    48.499361   -4.2851491   -2.1796965     9.836026   -29.794763   -190.76013 
 1860000    216.87327   -160774.24   -160710.45   -157915.16   -27.137753   -4.3514322   -2.5845007    48.499039   -4.2727276   -2.1855342    9.7746839   -28.157627   -184.68692 
 1870000    217.19612   -160769.33      -160704   -157904.55   -27.138966   -4.3391974   -2.5854198    48.502305   -4.2757789    -2.185054    9.8092568   -32.292952   -188.18741 
 1880000    212.42351   -160774.77   -160706.84   -157968.91   -27.140959   -4.3431105    -2.580173    48.496209   -4.2771791   -2.1748788    9.8044805   -31.017271   -189.61795 
 1890000    217.30846   -160795.99   -160735.49    -157934.6   -27.146963   -4.3350926   -2.5717664     48.48371    -4.271041    -2.178052    9.7394242   -27.304164   -190.26686 
 1900000     214.0994   -160727.86   -160666.98   -157907.45     -27.1484   -4.3397438   -2.5533003    48.471736   -4.2734239   -2.1800094    9.7605938   -28.371542   -190.74216 
 1910000    211.48996   -160765.08   -160704.26   -157978.36   -27.146359   -4.3417194   -2.5522304    48.472557   -4.2729969   -2.1687926    9.8401032   -29.636272   -188.37697 
 1920000    218.94944   -160796.72   -160740.32   -157918.28   -27.138731   -4.3295046   -2.5421725     48.47695   -4.2763816    -2.169843    9.8318224   -32.318097   -186.94615 
 1930000    214.12721   -160807.53   -160748.24   -157988.35   -27.151605   -4.3189774   -2.5453985    48.479344   -4.2781496   -2.1586587    9.7759066   -33.567653   -188.02369 
 1940000    214.90882   -160808.11    -160748.3   -157978.34    -27.15947   -4.3105533   -2.5495456    48.473039   -4.2872379   -2.1561145    9.7869991    -29.36591   -186.59961 
 1950000    213.85202   -160787.65   -160726.85   -157970.51   -27.156111   -4.3161066   -2.5467827    48.481898   -4.2778652   -2.1590957    9.7396113   -29.776505   -190.50243 
 1960000    215.30897   -160846.61   -160781.83   -158006.71   -27.152847   -4.3132848   -2.5500412    48.480479   -4.2764119   -2.1505087    9.8462299    -29.82507   -187.09215 
 1970000    216.60052   -160733.51   -160670.53   -157878.76   -27.152316   -4.3015574   -2.5518448    48.488271   -4.2806669   -2.1449203    9.6835009   -30.684798   -182.09735 
 1980000    215.34135   -160756.39   -160685.12   -157909.58   -27.161511   -4.3057677   -2.5657205      48.4717   -4.2708382   -2.1483146     9.777022   -28.495355   -185.93611 
 1990000    220.69857   -160759.92   -160693.78   -157849.19   -27.163976   -4.3030511   -2.5642889    48.469903    -4.258513   -2.1396176    9.7888226   -28.851035   -183.30443 
 2000000    219.09006   -160777.23    -160712.8   -157888.94   -27.145508   -4.3027432   -2.5515638    48.463806   -4.2567365   -2.1449008     9.823025   -33.209025   -184.86124 
 2010000     214.9334   -160806.48   -160745.84   -157975.56    -27.15142   -4.3004914   -2.5636235    48.473657    -4.257289   -2.1588278    9.7858027   -29.927529   -192.49267 
 2020000    213.98873    -160791.9    -160727.4   -157969.29   -27.157175   -4.3062844   -2.5572521    48.475057   -4.2480359   -2.1568947    9.8046414   -30.075532   -189.32714 
 2030000    209.91982      -160771   -160714.42   -158008.76   -27.146973   -4.3021294   -2.5608381    48.485916   -4.2498433   -2.1512818    9.7947748   -30.820647   -190.66893 
 2040000    213.48781   -160778.89   -160716.88   -157965.23   -27.150406   -4.2977293   -2.5694228    48.476471   -4.2494437   -2.1483912    9.7603445   -28.221523   -186.94829 
 2050000    213.67277   -160822.01   -160758.72   -158004.69   -27.146088   -4.2922067   -2.5778998    48.465015   -4.2411011   -2.1572472    9.8385481   -25.464235   -186.98616 
 2060000    214.55111   -160745.92   -160684.34   -157918.98   -27.134451   -4.2908188   -2.5744403     48.46343    -4.244777   -2.1527567    9.8617182   -32.300764   -181.65589 
 2070000    213.38589   -160791.46   -160725.57   -157975.24   -27.140842   -4.2882622   -2.5777036     48.47314   -4.2405164   -2.1587406      9.82427   -31.738629   -186.85145 
 2080000    215.79994   -160805.16   -160738.37   -157956.92   -27.148908   -4.2861189    -2.575116    48.463405    -4.245292   -2.1558141    9.8546537   -33.015643   -183.23471 
 2090000     216.4513   -160796.53   -160734.19   -157944.35   -27.141189   -4.2945764   -2.5770267     48.46463   -4.2487514   -2.1453891    9.7875312   -30.110531   -185.64837 
 2100000    212.21025   -160784.31   -160721.99    -157986.8    -27.13797    -4.298491   -2.5841738    48.466766   -4.2491971   -2.1446336    9.7672212   -31.236284   -193.26492 
 2110000    219.95329   -160795.45   -160722.82   -157887.84   -27.132291   -4.3048582    -2.570936     48.48083   -4.2468088   -2.1457782    9.7929193   -32.974213   -186.41696 
 2120000    213.76573   -160817.46   -160749.81   -157994.58   -27.135449   -4.3070013   -2.5624665    48.471868   -4.2418756   -2.1340044    9.8258898   -34.673526   -187.39349 
 2130000    217.19829   -160742.16   -160681.14   -157881.67   -27.138769    -4.312687   -2.5580581     48.47046   -4.2398779   -2.1334838    9.8465402   -28.777524   -185.92255 
 2140000    218.16141   -160768.42   -160703.18   -157891.29    -27.13913   -4.3139774   -2.5543986    48.470064   -4.2507985   -2.1289357    9.7595852   -30.977487   -184.90607 
 2150000    211.30563   -160769.26    -160703.5   -157979.98    -27.14045   -4.3178788   -2.5400387    48.467674   -4.2644276   -2.1191748    9.8338568   -36.004282   -183.86492 
 2160000    218.47441    -160718.6   -160650.71   -157834.79   -27.149647   -4.3157269   -2.5450309    48.467824   -4.2704553   -2.1114624    9.7936849   -29.549873   -192.01571 
 2170000    214.35987   -160730.77   -160668.29    -157905.4   -27.157828   -4.3082491    -2.543264     48.47105   -4.2786527   -2.1093781    9.8047013   -34.158632   -191.77005 
 2180000    213.70949   -160736.53   -160673.09   -157918.58   -27.172452   -4.3066791   -2.5483685    48.476857   -4.2761235    -2.122882    9.8477464   -27.692367   -187.90028 
 2190000    214.95253   -160820.12   -160768.57   -157998.04   -27.161812   -4.2981898   -2.5464929    48.460194   -4.2835852   -2.1187043    9.7281775   -30.706969   -188.79194 
 2200000    216.08708   -160777.06   -160706.81   -157921.66   -27.165007   -4.3125283   -2.5468674    48.459193   -4.2856765   -2.1135444    9.7843667   -34.021638   -186.82853 
 2210000    217.00123   -160804.65   -160742.73    -157945.8   -27.164437   -4.3060601   -2.5397057    48.456684   -4.2842179   -2.1239312    9.7439289   -32.416659   -186.69276 
 2220000    216.54117   -160833.04   -160773.45   -157982.45   -27.163613   -4.3017939   -2.5405375    48.455106   -4.2904528   -2.1210219    9.7325007    -30.84849   -186.78477 
 2230000    217.22108   -160818.14   -160750.85   -157951.08   -27.161925    -4.294671   -2.5483195    48.465066   -4.3049697   -2.1236028    9.7825772   -28.360059   -186.92761 
 2240000     218.6907   -160821.61   -160760.13   -157941.43   -27.154154   -4.2916542   -2.5542911     48.46708   -4.2997408   -2.1379987    9.8040927   -27.798501   -184.20543 
 2250000    217.04524   -160775.17   -160723.21   -157925.71   -27.155157    -4.295417   -2.5460999    48.471674   -4.3178305   -2.1425413     9.790509   -29.114909   -179.68049 
 2260000    212.15771   -160726.23   -160666.83   -157932.32   -27.160474     -4.29142   -2.5523125     48.46174   -4.3192951   -2.1436452    9.7381614   -30.362413   -190.91841 
 2270000    213.01548   -160759.83   -160696.43   -157950.87   -27.163725   -4.2909712   -2.5460518    48.457488   -4.3230259   -2.1341971    9.7239956   -30.861445   -186.74622 
 2280000    210.97383   -160701.22   -160637.61   -157918.36   -27.159218   -4.2916029   -2.5438743    48.455469   -4.3297404   -2.1437849    9.7066893   -28.398138   -183.71707 
 2290000    213.49664    -160765.7   -160704.85   -157953.09   -27.150702    -4.275114   -2.5405335    48.444072   -4.3406586   -2.1443947    9.6915758   -27.810602   -185.94188 
 2300000    216.42399   -160765.76   -160702.32   -157912.83   -27.146373   -4.2805514   -2.5406347    48.438477   -4.3407998   -2.1415731    9.7125124   -29.782514   -191.06471 
 2310000    211.20306   -160858.08   -160793.54   -158071.34   -27.147429   -4.2708342   -2.5285616    48.443854   -4.3275272   -2.1338374    9.7239448   -25.390062   -190.44051 
 2320000    214.94565   -160804.17   -160742.03   -157971.59   -27.154759   -4.2648036   -2.5243745    48.434128   -4.3257172   -2.1343085     9.735305   -32.755336   -188.98417 
 2330000    215.59706   -160787.68    -160723.9   -157945.06   -27.160771   -4.2575337   -2.5241474    48.428292   -4.3190767   -2.1513667    9.7706919   -27.677573   -189.10689 
 2340000     215.5151   -160778.34   -160720.41   -157942.63   -27.166919   -4.2634776    -2.523375    48.437167   -4.3228607   -2.1440746    9.7529495   -28.003716   -187.55678 
 2350000    214.31264   -160696.57   -160634.76   -157872.48    -27.15503   -4.2625143   -2.5243388    48.435671   -4.3168302   -2.1309899    9.7977111    -33.83969   -185.03152 
 2360000    212.14083   -160769.61   -160707.55   -157973.26   -27.156239   -4.2621567   -2.5263689    48.433636   -4.3276974   -2.1189101    9.8821555   -36.184805   -186.58218 
 2370000    213.69784   -160779.91   -160714.25    -157959.9   -27.148286   -4.2730086   -2.5381542    48.435553   -4.3326602   -2.1200946    9.7451945   -29.476468   -186.49451 
 2380000    209.83678   -160784.17    -160724.8   -158020.21   -27.146739    -4.286618   -2.5409635    48.444688   -4.3352007   -2.1268581    9.7528824   -34.968111   -179.79063 
 2390000    219.95963   -160718.16   -160659.93   -157824.87   -27.137845   -4.3020831   -2.5470221    48.446336   -4.3315235   -2.1203637    9.8372333   -31.632957   -183.57609 
 2400000    221.19279    -160777.5   -160719.76    -157868.8   -27.141215   -4.3059555   -2.5525706    48.443843   -4.3312704    -2.113337    9.7810607   -35.075778   -182.59292 
 2410000    219.94276   -160760.44   -160694.22   -157859.38   -27.136847   -4.3066732   -2.5514019    48.450044   -4.3302342   -2.1237205    9.7018088   -29.532467   -187.05309 
 2420000    214.11541   -160775.94   -160707.95   -157948.22   -27.130363   -4.3088559   -2.5464484    48.438083   -4.3280613   -2.1187605    9.7698219   -31.916809   -191.91464 
 2430000    216.62528   -160767.12    -160706.7   -157914.61   -27.128475   -4.3113853   -2.5460261    48.432179   -4.3259829   -2.1217604    9.6865286   -31.788495   -182.70115 
 2440000     215.7349   -160789.53   -160728.15   -157947.53   -27.130152   -4.2979183   -2.5497722     48.41725   -4.3237366   -2.1257103      9.72962   -30.339371   -184.80819 
 2450000    215.86813   -160716.56   -160653.02   -157870.69   -27.139425   -4.3021032   -2.5524973    48.412772   -4.3153542   -2.1287144    9.7049758   -31.303331   -185.08374 
 2460000    215.55722   -160718.52   -160658.61   -157880.29   -27.141715   -4.3107936   -2.5486268    48.414031   -4.3209912   -2.1403712    9.7009071   -31.147943   -185.26409 
 2470000    213.12504   -160834.76   -160774.95   -158027.98    -27.14998   -4.3124898   -2.5569776    48.421198   -4.3296293   -2.1524464     9.707703   -29.386552   -187.40638 
 2480000    214.66611   -160761.26   -160697.46   -157930.62   -27.150967   -4.2996413   -2.5627592     48.40548   -4.3257885   -2.1591606    9.7780365   -30.687119   -183.89041 
 2490000    215.69321    -160769.8   -160705.74   -157925.66   -27.144875   -4.2932818   -2.5614265    48.406059   -4.3253525   -2.1582209    9.7913263   -31.529955   -190.12174 
 2500000    214.85484   -160806.01   -160742.01   -157972.74   -27.127846   -4.2930586   -2.5564197    48.408147    -4.328659   -2.1473349    9.6803186   -33.015274   -191.88952 
 2510000    215.54733   -160713.98   -160649.51   -157871.32    -27.11962   -4.2933442   -2.5448729    48.399069   -4.3230724   -2.1485648    9.7471554   -28.721625   -189.77514 
 2520000    212.27035   -160846.66   -160785.84   -158049.88   -27.109496   -4.2997732   -2.5404824    48.392688   -4.3275888   -2.1462888    9.7617365   -26.851187    -184.6928 
 2530000    212.55396   -160783.54   -160717.62   -157978.01   -27.110849   -4.3057074    -2.539034    48.405869   -4.3308931   -2.1471004    9.7492317   -28.768657   -192.22832 
 2540000    218.84384   -160740.97   -160681.01   -157860.32    -27.12336   -4.3062124   -2.5491808    48.408948   -4.3275548   -2.1447115    9.7522645   -29.854113   -180.62031 
 2550000    216.04416   -160764.93   -160704.74   -157920.15   -27.116115   -4.3072224   -2.5528227    48.396494   -4.3281747   -2.1419468    9.7475762   -29.048209   -185.55578 
 2560000    211.61625   -160779.17   -160708.29   -157980.77   -27.114498    -4.304084   -2.5471136    48.389503   -4.3405727   -2.1366721     9.756654   -30.077273   -183.68492 
 2570000    217.80722   -160769.84   -160708.09   -157900.77   -27.108924   -4.3098963   -2.5569808    48.404246   -4.3425786   -2.1470148     9.759319   -29.595876   -185.42209 
 2580000    213.92362   -160716.67      -160649   -157891.73   -27.102967   -4.3050209    -2.568835     48.40906    -4.339043   -2.1517453    9.7368861    -28.73926   -190.96362 
 2590000    214.07419   -160816.46    -160755.7   -157996.49   -27.092848   -4.3169871    -2.563658    48.411899    -4.338719   -2.1581743    9.7847077   -28.585458   -185.00833 
 2600000    218.23794   -160773.09   -160708.19   -157895.32   -27.093823   -4.3202673   -2.5677491    48.413604   -4.3366623   -2.1509439    9.7197918   -29.823176   -176.69812 
 2610000    213.02277   -160707.34    -160642.5   -157896.84   -27.099222    -4.305825   -2.5775564    48.403383   -4.3463443   -2.1511838    9.7579171   -30.298523   -185.94657 
 2620000    215.54073   -160866.37      -160797   -158018.89   -27.100464   -4.3048174   -2.5911494    48.410129   -4.3428087   -2.1509928     9.837505   -29.294989   -181.97747 
 2630000    217.42891   -160819.01    -160755.7   -157953.26   -27.095741   -4.2992671   -2.5910148    48.406558   -4.3636972    -2.166739    9.8656718   -30.967787   -187.46347 
 2640000    217.44911   -160761.87   -160697.94   -157895.23   -27.080777    -4.299867   -2.5906894    48.398244   -4.3608634   -2.1713598    9.7440303   -29.865732   -183.24514 
 2650000    212.02839   -160795.01   -160733.43    -158000.6    -27.08152   -4.2965068   -2.5921379    48.391965   -4.3516656   -2.1613904    9.7533105   -28.175509    -189.4177 
 2660000    206.44762   -160779.76   -160716.14   -158055.23   -27.087565   -4.2971493   -2.5930019      48.3972   -4.3385243   -2.1685455    9.7322766   -30.376005   -193.84635 
 2670000    217.16276   -160780.13   -160715.65   -157916.64   -27.093895   -4.3019597   -2.5931932    48.395685   -4.3393858   -2.1701503    9.7639337   -31.874386   -187.66205 
 2680000    212.39209   -160821.96      -160760   -158022.47   -27.116081   -4.2972611   -2.5892333    48.392764   -4.3446515   -2.1702658    9.7095398   -27.361522   -185.95427 
 2690000    215.52637   -160827.13   -160770.87   -157992.94   -27.115171   -4.2944667   -2.5966774    48.398267   -4.3575828   -2.1730684    9.7738619   -29.272263   -193.35048 
 2700000    217.15456   -160755.66   -160692.29   -157893.38   -27.109452   -4.2990636   -2.5890392    48.403472   -4.3635484   -2.1752549    9.7919676   -31.226979   -184.63715 
 2710000    211.55658   -160867.31    -160810.6   -158083.84   -27.106141    -4.291846    -2.595491    48.410262   -4.3559579   -2.1870465    9.7312649   -26.992127   -184.39916 
 2720000    215.75919   -160763.57   -160699.83   -157918.91   -27.103438   -4.2887248   -2.6000639    48.406972   -4.3489759   -2.1801213    9.6972878   -29.235585   -180.03647 
 2730000    215.29723   -160784.44   -160721.46   -157946.49   -27.104859   -4.2762977   -2.6109589    48.407186   -4.3519397   -2.1851119    9.7471554   -28.341297   -186.75811 
 2740000     216.3056   -160801.22   -160739.59   -157951.62   -27.099862   -4.2639971   -2.6144094    48.400876   -4.3531546   -2.1791588    9.7622104   -31.241449   -188.18098 
 2750000    212.36021   -160778.99   -160713.52    -157976.4   -27.095978   -4.2543463   -2.6210347    48.405665   -4.3556088   -2.1848621    9.7526879   -31.878784   -186.51436 
 2760000    216.11205   -160779.65    -160719.5   -157934.03   -27.093068   -4.2575348   -2.6205772    48.409068   -4.3593807   -2.1876734     9.779343   -31.053876   -188.60169 
 2770000    214.49204   -160775.26    -160714.3   -157949.71   -27.104773   -4.2660187   -2.6164281     48.41179    -4.353078   -2.1776853     9.749972   -30.321156   -186.52905 
 2780000    216.30431   -160763.24   -160701.76    -157913.8   -27.102772   -4.2653354   -2.6161774    48.393454    -4.371642   -2.1791307    9.7907172   -28.379973   -185.99157 
 2790000    211.28333   -160823.54   -160762.64   -158039.41   -27.103921   -4.2576917   -2.6206943    48.388785   -4.3687157   -2.1834536    9.7945777   -30.812138   -183.93985 
 2800000    214.99264   -160790.08   -160727.61   -157956.56   -27.112485   -4.2575496   -2.6337057    48.383961   -4.3785183   -2.1790397    9.7309334   -33.252236   -190.90029 
 2810000    212.82448   -160763.93   -160700.27   -157957.17    -27.10801   -4.2605263   -2.6247333    48.393459    -4.379355   -2.1661129    9.7269373   -31.401064   -186.56713 
 2820000    212.15648   -160770.94   -160707.45   -157972.96   -27.109559   -4.2743488   -2.6026515    48.389409   -4.3827752   -2.1735442    9.6312063   -32.562981   -182.18235 
 2830000    218.87935   -160768.99   -160699.12   -157877.98   -27.107232   -4.2720375   -2.6044632    48.395946   -4.3837926   -2.1724679    9.7352704   -30.856096    -187.3315 
 2840000    215.76102   -160781.08    -160714.3   -157933.35   -27.121086   -4.2690911   -2.6055811    48.402384   -4.3779461   -2.1657958    9.7627124   -33.663748   -184.59382 
 2850000    215.95844   -160793.15   -160737.14   -157953.65   -27.132791   -4.2765067   -2.6100167    48.400049   -4.3865979     -2.16569    9.8081322   -30.977426   -185.98207 
 2860000    219.11944   -160764.82   -160698.76   -157874.52   -27.132212   -4.2819243   -2.6093127    48.401827   -4.3903386   -2.1655502    9.7880619    -28.80235   -188.76124 
 2870000    218.66325   -160798.56   -160735.57   -157917.21   -27.144178   -4.2851001   -2.6133552    48.413575   -4.3870908   -2.1626042    9.7060192   -29.803256   -182.40766 
 2880000    213.16148   -160702.49   -160639.67   -157892.22   -27.155298   -4.2802594   -2.6155333    48.419401    -4.377871   -2.1702395    9.8450957   -27.241229   -187.05047 
 2890000    211.48485   -160803.93    -160743.2   -158017.37   -27.166635   -4.2758584   -2.6117941    48.410909   -4.3849905   -2.1722313    9.7874636   -31.124799   -183.49769 
 2900000     212.3447   -160740.14   -160681.35   -157944.43   -27.172839   -4.2679922    -2.603335    48.408314   -4.3862329   -2.1672364    9.7614179   -28.063679   -181.23461 
 2910000    213.96103   -160803.23   -160741.39   -157983.64     -27.1817   -4.2655003   -2.6045692    48.418592   -4.4040175   -2.1768213    9.7947201   -30.213256   -191.12356 
 2920000    217.26241   -160750.25   -160689.63   -157889.33   -27.178174   -4.2607437   -2.6073927    48.419682   -4.4110842   -2.1773793    9.7147834   -30.256447   -186.25906 
 2930000      209.685   -160806.43    -160741.3   -158038.67   -27.179225   -4.2611277   -2.5945518    48.415701   -4.4158361    -2.186383     9.661491   -30.749224   -188.42282 
 2940000    215.63898   -160798.86   -160736.17   -157956.79   -27.183917   -4.2660341   -2.5913748    48.412634   -4.4135652   -2.1805032    9.7885732   -29.266652   -184.84954 
 2950000     213.7295    -160795.5   -160729.48   -157974.71   -27.184333   -4.2772454   -2.6027737    48.420491   -4.4048223    -2.181075     9.683312   -34.836909   -187.69262 
 2960000    208.46806   -160777.24   -160709.64   -158022.69   -27.184234   -4.2708617    -2.594969    48.421724   -4.4137467   -2.1841822    9.8377334   -28.616386   -186.89966 
 2970000    213.51552   -160810.09   -160746.78   -157994.77   -27.190762   -4.2625508    -2.599248    48.421562   -4.4138352   -2.1797675    9.7059617   -30.883711   -181.99464 
 2980000    216.75511   -160750.32   -160685.09   -157891.33   -27.197982   -4.2521059   -2.6022766    48.420594   -4.4049663   -2.1892289     9.775177    -35.30773   -186.73815 
 2990000      210.467   -160748.41   -160683.81   -157971.09   -27.193668   -4.2475104   -2.5948272    48.407717   -4.3993674   -2.1874272    9.8115393   -30.099996   -184.80904 
 3000000    212.66511   -160800.57      -160739   -157997.95   -27.192331   -4.2471884   -2.5972828    48.393043   -4.3968142   -2.1867149    9.8001874   -31.290625    -183.8847 
 3010000    212.40674   -160756.27   -160692.04   -157954.32    -27.17905   -4.2378553   -2.5955402    48.400773   -4.3902678   -2.1891611    9.7767194   -33.662784   -188.58798 
 3020000    211.19503   -160794.57   -160731.36   -158009.26   -27.183091   -4.2373131   -2.5915224    48.401596    -4.390407   -2.1907966    9.7373537   -33.823094   -191.27095 
 3030000    216.94365   -160730.78   -160671.34   -157875.15   -27.171951   -4.2414738   -2.5941508    48.403575   -4.3811774   -2.2024614    9.7276196   -32.007934   -186.34223 
 3040000    218.00966   -160809.94   -160749.83   -157939.89   -27.168412   -4.2371837   -2.6003474    48.403347    -4.376599   -2.2064492    9.7759504   -28.501245    -187.9655 
 3050000     218.3731   -160784.72   -160722.66   -157908.04   -27.162881    -4.225557   -2.5884241    48.398636   -4.3813838   -2.2118216    9.6499032   -26.898026   -181.99454 
 3060000    216.27987   -160817.45   -160752.29   -157964.66   -27.178332   -4.2153494   -2.5904237    48.412475   -4.3905973   -2.2102042    9.7953168   -26.319553   -183.94141 
 3070000    214.36824   -160757.34   -160698.95   -157935.95   -27.177155   -4.2078751   -2.5889311    48.400873   -4.4001735   -2.2240198    9.7165666   -29.872773   -185.34218 
 3080000      215.542   -160780.34   -160716.49   -157938.37    -27.17229   -4.2093987   -2.5914967     48.39312   -4.4063914   -2.2240076    9.7525202   -29.574921   -187.96295 
 3090000    218.20867   -160712.27    -160650.2    -157837.7   -27.165172   -4.2037807    -2.587177      48.3972   -4.4040614   -2.2222599    9.7441976   -30.271936   -187.23179 
 3100000     214.8953   -160829.24   -160759.26   -157989.47   -27.156329   -4.2005911   -2.5801253    48.399369   -4.3955086    -2.216437    9.7502119    -28.23283   -193.38989 
 3110000    212.88109   -160717.57   -160656.24   -157912.41   -27.155879   -4.2071488    -2.582424     48.39739   -4.4063978   -2.2021278    9.7123077    -32.34165   -189.79122 
 3120000    214.08081   -160728.98   -160659.96   -157900.66   -27.158503   -4.2227038   -2.5879867    48.404599   -4.4077381   -2.2082876    9.7599839   -29.866524   -178.47993 
 3130000    211.00175   -160821.97   -160757.92   -158038.31   -27.170988   -4.2216909   -2.5878894      48.4084   -4.4231558   -2.2205394    9.7735794   -30.435419   -184.77581 
 3140000    218.85317   -160758.71   -160698.69   -157877.89    -27.16392   -4.2211153   -2.6010082     48.40304   -4.4229574   -2.2167569     9.716516   -30.740096   -185.67005 
 3150000    215.97854   -160753.12   -160686.58   -157902.82   -27.162286   -4.2280759   -2.6050834    48.405045   -4.4358021   -2.2159809    9.8305035   -31.410068   -190.65451 
 3160000    216.60603   -160797.46   -160731.28   -157939.44   -27.154538   -4.2366937   -2.6017228    48.410029   -4.4416414   -2.2166378    9.7332519   -27.652691   -190.26632 
 3170000    213.49954   -160799.91   -160734.07   -157982.27   -27.156069   -4.2387632   -2.5964601    48.423821   -4.4370332   -2.2278601    9.7338842   -29.208458   -184.75822 
 3180000    215.64344   -160849.73   -160787.16   -158007.73   -27.166987   -4.2360991    -2.591688    48.408252   -4.4349511   -2.2324553    9.8729278   -34.498958   -186.74762 
 3190000    218.69048   -160787.49   -160726.09   -157907.39   -27.160402   -4.2390755   -2.5974258    48.418319    -4.423666   -2.2372487    9.7917933   -33.877466   -178.65854 
 3200000    216.60762   -160760.21   -160698.41   -157906.55   -27.155342   -4.2325227   -2.6138826    48.422614   -4.4150677   -2.2355556    9.8521332   -30.042231   -185.97529 
 3210000    218.47956   -160748.77   -160686.23   -157870.24   -27.152627    -4.250303   -2.6157487    48.419129   -4.4217282   -2.2400491    9.8084861   -31.469062   -185.58129 
 3220000    211.21056   -160781.54   -160723.21   -158000.92   -27.138406   -4.2395687   -2.6140429     48.41591   -4.4164903     -2.23309    9.7410991    -29.15857   -187.59756 
 3230000    210.34967   -160796.28   -160730.15   -158018.95   -27.140872   -4.2408302   -2.6187069    48.410892   -4.4139996   -2.2303405    9.7941955   -32.258943   -186.20778 
 3240000     218.7381   -160870.81   -160803.63   -157984.31   -27.153904   -4.2438846   -2.6197225    48.408398   -4.4179219   -2.2415818    9.8479078   -31.059907   -185.46134 
 3250000    219.17434   -160776.77   -160713.84    -157888.9   -27.153936    -4.242554   -2.6193567    48.400155   -4.4236148   -2.2439857    9.6726662   -25.578793   -185.23188 
 3260000    216.49918   -160779.25   -160708.83   -157918.37   -27.156122   -4.2397412   -2.6154507    48.401856   -4.4272868   -2.2439602    9.7727746   -31.448252   -191.37557 
 3270000    217.57631   -160723.99   -160652.57   -157848.22    -27.15226   -4.2257634   -2.6153897    48.399703   -4.4273124    -2.238535    9.7842754   -33.165555   -187.01853 
 3280000    217.40037   -160734.17   -160671.01   -157868.93   -27.156972   -4.2311146   -2.6177772    48.402678   -4.4296419   -2.2231929    9.7339156   -33.236121   -185.56179 
 3290000    215.16568    -160797.4   -160728.76   -157955.49   -27.154731   -4.2402006   -2.6116829    48.413463   -4.4361381   -2.2264542    9.7137688    -31.00841   -187.06046 
 3300000    219.36637    -160840.4   -160773.25   -157945.83   -27.146673   -4.2272538    -2.605193    48.416434   -4.4322738   -2.2207789    9.7504996   -31.604493   -187.49298 
 3310000     219.0323   -160797.54    -160731.2   -157908.09   -27.153017   -4.2184049    -2.613969    48.426456   -4.4192213   -2.2112667    9.8084101   -27.888296   -188.28307 
 3320000    210.65041   -160788.18   -160724.49   -158009.42   -27.157134   -4.2287051   -2.6124995    48.417744   -4.4067369   -2.2036229    9.7966404   -27.401619   -193.26684 
 3330000    215.82073   -160792.76   -160725.27   -157943.55   -27.146353   -4.2261963   -2.6056728    48.417945   -4.4122302   -2.1959195    9.8034054   -31.480559   -192.58231 
 3340000    209.40126   -160805.45   -160745.83   -158046.86   -27.151235   -4.2276592   -2.6029489    48.402348   -4.4184367   -2.1870036    9.7567447   -33.400268   -184.61962 
 3350000    215.12506   -160819.39   -160754.05    -157981.3   -27.148703   -4.2152179    -2.600612    48.397153   -4.4187533   -2.1847707     9.751985   -29.599034   -192.51525 
 3360000    212.29984   -160770.62   -160709.19   -157972.86   -27.141445   -4.2153018   -2.5886843    48.401782   -4.4126125   -2.1867584    9.7190631   -28.811268   -184.40398 
 3370000    214.63109   -160748.76   -160689.39   -157923.01   -27.154883   -4.2140162   -2.5849857    48.407176    -4.411333   -2.1867266     9.653548   -34.873032    -184.3338 
 3380000    207.81866    -160791.3   -160727.33   -158048.75   -27.161573    -4.216037   -2.5959013    48.403514   -4.4086877   -2.1907665    9.7113967   -30.662641    -184.7029 
 3390000    214.70179   -160778.14   -160711.16   -157943.86   -27.160354   -4.2286152   -2.5824009     48.41181    -4.414485   -2.1948918    9.7334251   -27.753465   -187.87069 
 3400000    214.93745   -160756.09   -160683.63   -157913.29   -27.171534   -4.2341879   -2.5790985    48.417815   -4.4184748   -2.1944912    9.7624202   -27.302352   -192.78742 
 3410000    210.38827   -160735.13   -160663.25   -157951.55   -27.185488   -4.2373525   -2.5890897    48.425897    -4.420457   -2.1867946    9.7483854    -29.72464   -188.21319 
 3420000    213.23379   -160818.47    -160755.8   -158007.43   -27.193279   -4.2400185   -2.5944257     48.43546   -4.4164133   -2.1754069    9.7313646   -32.773944   -190.27679 
 3430000    214.80889   -160740.82   -160674.23   -157905.56   -27.192123   -4.2247944   -2.5986806    48.431541   -4.4155378   -2.1746952    9.6962103   -27.620329   -184.87466 
 3440000    210.41148   -160734.08   -160678.61   -157966.61   -27.191125   -4.2248607   -2.5965785    48.427073   -4.4148691   -2.1623344    9.6599513   -30.631566   -186.13094 
 3450000    216.48484    -160772.8   -160705.11   -157914.84   -27.186439   -4.2254016   -2.6123841    48.423642   -4.4247225   -2.1539005    9.8235507   -30.745034   -189.04623 
 3460000    216.69698   -160807.59   -160740.29   -157947.28    -27.17155   -4.2357034   -2.6146288    48.430528   -4.4169651   -2.1479827    9.7576526   -24.400489   -182.96593 
 3470000    217.19637   -160830.58   -160769.64    -157970.2   -27.163035   -4.2356517   -2.6147322     48.43312   -4.4222303   -2.1520128    9.8038962   -31.616814   -187.58449 
 3480000    211.67256   -160823.71   -160762.73   -158034.48   -27.167323   -4.2430348   -2.6038451    48.434444   -4.4123068   -2.1452678    9.7751363   -31.316043   -187.56202 
 3490000    215.04534   -160794.53   -160737.17   -157965.44   -27.172225   -4.2346061   -2.5959052    48.436395   -4.4140145   -2.1338469    9.7783334   -31.267617   -190.96065 
 3500000    213.28192   -160775.92    -160710.2   -157961.21   -27.166394   -4.2271823   -2.5847959    48.431051   -4.4166807   -2.1383448    9.8031773   -31.028404   -192.58029 
 3510000    211.40164   -160766.92   -160710.67   -157985.91   -27.167576   -4.2179353   -2.5938298    48.434358    -4.416124   -2.1484805     9.789139   -28.471184   -193.36342 
 3520000    210.08537   -160759.79    -160693.2   -157985.41   -27.173632   -4.2203433   -2.5991947    48.431018   -4.4073263   -2.1616361    9.7880725   -32.009949   -184.44213 
 3530000    216.15194   -160837.38   -160771.19   -157985.21   -27.160662   -4.2187297   -2.6087538    48.429843    -4.402849   -2.1590186    9.7190441   -31.772384    -185.2283 
 3540000    214.98987   -160728.45   -160664.31    -157893.3   -27.168644   -4.2223364   -2.6073756    48.423792   -4.4050204   -2.1640655     9.724546   -28.724796   -188.66439 
 3550000    218.14195   -160812.16   -160746.77   -157935.13   -27.180669   -4.2170604   -2.6044213    48.422296   -4.4090431   -2.1493569    9.7739968   -32.810566   -186.41615 
 3560000    217.95775   -160752.84   -160686.57   -157877.31   -27.179367    -4.212228   -2.6067447     48.41791   -4.4033534   -2.1412371    9.7870299   -31.210712   -192.29124 
 3570000    215.18666   -160761.16   -160693.88   -157920.33   -27.186361    -4.216534    -2.609869    48.422956    -4.423485   -2.1388158    9.8559859   -33.696831   -190.81821 
 3580000    218.72026   -160702.25   -160639.54   -157820.45   -27.192919   -4.2190408   -2.6132913    48.423455   -4.4234381   -2.1459348     9.759651   -32.601818   -188.86728 
 3590000    215.30279   -160804.63   -160740.77   -157965.73    -27.19109   -4.2323882   -2.6108179     48.42693   -4.4336112   -2.1597737    9.7412658   -26.487625   -186.60839 
 3600000    215.07824   -160817.72    -160754.3   -157982.15   -27.194434   -4.2256626   -2.6156016    48.422041   -4.4378142   -2.1588213    9.7034629   -27.267262   -184.94491 
 3610000    217.01711   -160824.73   -160761.92   -157964.78   -27.197172    -4.222086   -2.6112659    48.412619   -4.4313206   -2.1623017    9.7249454   -29.648958   -188.90113 
 3620000    215.57699   -160814.76   -160747.58      -157969    -27.20629   -4.2143832   -2.5992268    48.414395   -4.4355859   -2.1522618    9.8309337   -29.810956   -188.76802 
 3630000    214.98268   -160756.69   -160697.38   -157926.46   -27.192078   -4.2125076   -2.5993254    48.420085   -4.4307529   -2.1466146    9.6964333   -25.943379   -184.72929 
 3640000    215.00247   -160761.64   -160702.55   -157931.38    -27.18144   -4.2178249   -2.6053449    48.415689   -4.4300844   -2.1517121    9.7268349   -30.822218   -181.08969 
 3650000    212.08326   -160738.31   -160669.64   -157936.09   -27.177972   -4.2203369   -2.6041784    48.422046   -4.4312551   -2.1605864    9.7102284   -31.117757   -180.99382 
 3660000    217.49758   -160716.28   -160649.24   -157845.91    -27.18363   -4.2284744   -2.6056335    48.430979   -4.4324125   -2.1650668     9.771929   -28.845624   -189.04583 
 3670000    214.82744    -160771.3   -160706.03   -157937.11   -27.195034   -4.2236104   -2.6009873    48.425069   -4.4401263   -2.1642737    9.7886662   -33.592133   -188.00405 
 3680000    218.00681   -160773.33   -160712.02   -157902.13    -27.20994   -4.2302071   -2.6037719    48.424436   -4.4353303   -2.1562285     9.697167   -27.961233   -187.34044 
 3690000    214.78822   -160801.01   -160744.44   -157976.03   -27.206395   -4.2411608   -2.6001266    48.419221   -4.4306034   -2.1527236    9.8006437   -31.987812   -187.63974 
 3700000     212.0732   -160784.21   -160726.63   -157993.21   -27.209515   -4.2513496   -2.5840355    48.409987   -4.4343212   -2.1433232    9.7549668   -33.885232   -185.88548 
 3710000    214.30319   -160806.02    -160751.9   -157989.74   -27.201586   -4.2463244   -2.5836987    48.428171   -4.4433688   -2.1473392    9.7236086    -26.78276   -182.38469 
 3720000    212.49532   -160820.91   -160754.55   -158015.69   -27.190076   -4.2498544   -2.5811292    48.429062   -4.4457236   -2.1437639    9.7279219   -27.749645   -182.82594 
 3730000     219.0805   -160782.46   -160727.08   -157903.35   -27.183682   -4.2522161   -2.5740201    48.434885   -4.4428088   -2.1445217    9.7918572   -27.776626   -184.11873 
 3740000    214.85793   -160812.09   -160739.54   -157970.23   -27.188921    -4.247896   -2.5836035    48.450736   -4.4329012   -2.1390926     9.826136   -33.362053   -181.77686 
 3750000     216.3288    -160811.7   -160751.05   -157962.78   -27.185056   -4.2515159    -2.566099    48.442639   -4.4491819    -2.149023    9.8235061   -27.886422   -185.69168 
 3760000    221.13124   -160867.74    -160803.9   -157953.74   -27.192198    -4.256068   -2.5753668    48.429587   -4.4520827   -2.1452478    9.8396775   -29.096973    -187.0696 
 3770000    218.46877   -160801.91   -160741.05    -157925.2   -27.188024   -4.2552268   -2.5654903    48.425853   -4.4550688   -2.1509704    9.6415224   -30.091914   -188.83819 
 3780000    212.47152   -160782.37    -160720.7   -157982.15   -27.190391   -4.2469294   -2.5549098    48.437942   -4.4564305     -2.15286    9.6962699   -30.734317    -183.0405 
 3790000    216.64541   -160733.51   -160662.48   -157870.13   -27.187935   -4.2535642    -2.538959    48.445667   -4.4471556   -2.1598513    9.7717641   -31.729784   -187.88022 
 3800000    215.58097    -160778.1   -160721.33    -157942.7   -27.183316   -4.2504315   -2.5478168    48.440016   -4.4473995   -2.1678507    9.7559455   -27.921659   -185.42947 
 3810000    215.91021   -160754.12   -160687.79   -157904.92   -27.182547   -4.2433601   -2.5445572    48.444341   -4.4455196   -2.1613617    9.8755342   -30.118811   -188.25658 
 3820000    215.81594    -160807.7   -160747.84   -157966.19   -27.179402   -4.2366353   -2.5412726    48.447929    -4.444693   -2.1699419    9.7854112    -32.73352   -183.20716 
 3830000      215.688   -160762.71   -160695.42   -157915.42   -27.174818   -4.2380066   -2.5475956    48.453984   -4.4307018   -2.1714116    9.8366141   -28.699797   -186.80485 
 3840000    214.71582   -160748.22   -160688.57   -157921.09     -27.1677   -4.2391517   -2.5498074    48.457356   -4.4288206   -2.1716615    9.6911349   -26.781976   -186.00832 
 3850000    213.04069   -160758.53   -160695.33   -157949.44    -27.16743   -4.2395685   -2.5452244    48.461027   -4.4309367   -2.1752231     9.783729   -29.732577   -188.76359 
 3860000    214.51895    -160757.6   -160702.78   -157937.84   -27.175516   -4.2485366   -2.5532077    48.469001   -4.4319771   -2.1741173    9.8069983    -31.66241   -183.12321 
 3870000    218.87867   -160747.69   -160691.48   -157870.35   -27.169528   -4.2679941   -2.5528291     48.47812   -4.4277019   -2.1752057    9.7770043   -23.888967   -185.48854 
 3880000    218.69735   -160800.71   -160741.96   -157923.17   -27.159102   -4.2799763   -2.5618476     48.45897   -4.4303146   -2.1741849    9.8078004   -28.911949   -188.06272 
 3890000    217.70117   -160785.07    -160723.9   -157917.95   -27.151435   -4.2850529   -2.5537817    48.446784   -4.4376498   -2.1723375    9.7792244   -30.000983   -193.03338 
 3900000    214.50026   -160729.23   -160670.48   -157905.78     -27.1484   -4.2875427   -2.5534163    48.444355   -4.4378366   -2.1750161    9.6576428   -26.851615   -185.69923 
 3910000    216.56129   -160747.69   -160690.74   -157899.48   -27.139125   -4.2894914   -2.5547864    48.448757   -4.4366218   -2.1788981    9.6269094   -26.495653   -186.25472 
 3920000     212.0654   -160749.77    -160692.6   -157959.28   -27.139608   -4.3016926   -2.5397972    48.447121   -4.4305779   -2.1652029    9.6919702   -28.470673   -183.19326 
 3930000    214.14622   -160787.65   -160731.76   -157971.62   -27.128383   -4.3088086   -2.5320548    48.439097   -4.4196917    -2.171304    9.8467534   -35.392061   -183.77504 
 3940000    221.30691   -160756.81   -160698.44   -157846.02    -27.13643    -4.312819   -2.5370643    48.435823    -4.418243   -2.1839351    9.7282084   -28.598726   -185.84052 
 3950000    213.13808   -160821.32   -160757.67   -158010.53   -27.129752   -4.3057713   -2.5330359    48.429771   -4.4126955   -2.1921015    9.7843424   -34.579132   -182.82091 
 3960000    214.19184   -160789.57   -160735.67   -157974.95   -27.135878   -4.3215912   -2.5405776    48.427356   -4.4070153   -2.1873561     9.705896    -31.67487   -181.81075 
 3970000    218.52764   -160732.94   -160673.63   -157857.02   -27.140205   -4.3138505   -2.5291298    48.431012    -4.411534   -2.2036968    9.7992639   -34.244982   -186.02056 
 3980000    214.14916   -160758.85   -160700.67   -157940.49   -27.152989   -4.3230405   -2.5223029    48.428662   -4.4074587   -2.2061478    9.8033039   -30.813279   -188.47658 
 3990000    215.48395   -160733.67   -160670.68   -157893.31   -27.162534   -4.3130836   -2.5243559     48.41827    -4.406882   -2.2033564    9.8620229   -31.357736   -193.86909 
 4000000    215.89102   -160738.33   -160681.69   -157899.06   -27.177726    -4.314315   -2.5190996    48.416309   -4.3992161   -2.1994291    9.8098529    -35.77093   -189.54004 
Loop time of 13380.9 on 8 procs for 4000000 steps with 4325 atoms

Performance: 6.457 ns/day, 3.717 hours/ns, 298.934 timesteps/s
99.7% CPU use with 8 MPI tasks x 1 OpenMP threads

MPI task timing breakdown:
Section |  min time  |  avg time  |  max time  |%varavg| %total
---------------------------------------------------------------
Pair    | 2100.7     | 5080.2     | 9019.9     |3355.3 | 37.97
Bond    | 165.53     | 257.22     | 506.85     | 628.0 |  1.92
Neigh   | 18.516     | 18.585     | 18.651     |   0.9 |  0.14
Comm    | 296.38     | 4484.4     | 7554.8     |3695.6 | 33.51
Output  | 0.32796    | 0.32873    | 0.32917    |   0.1 |  0.00
Modify  | 3483.2     | 3491.8     | 3504       |  12.6 | 26.10
Other   |            | 48.31      |            |       |  0.36

Nlocal:        540.625 ave         841 max         330 min
Histogram: 2 0 2 0 2 0 0 0 1 1
Nghost:        1162.88 ave        1326 max        1002 min
Histogram: 1 1 1 1 0 1 0 1 1 1
Neighs:        816.500 ave        4504 max           0 min
Histogram: 6 0 0 1 0 0 0 0 0 1

Total # of neighbors = 6532
Ave neighs/atom = 1.5102890
Ave special neighs/atom = 0.32323699
Neighbor list builds = 6999
Dangerous builds = 0

## OFF state ##
set group shell1 charge  0
  534 settings made for charge
set group shell2 charge  0
  534 settings made for charge
set type 4 charge -0.1
  22 settings made for charge
set type 5 charge  0.11764706
  17 settings made for charge
set type 7 charge  0.1
  2 settings made for charge

run ${runtime}
run 4000000
WARNING: More than one compute ke/atom (src/src/compute_ke_atom.cpp:55)
WARNING: More than one compute ke/atom (src/src/compute_ke_atom.cpp:55)
WARNING: More than one compute ke/atom (src/src/compute_ke_atom.cpp:55)
Neighbor list info ...
  update every 1 steps, delay 0 steps, check yes
  max neighbors/atom: 2000, page size: 100000
  master list distance cutoff = 12.5
  ghost atom cutoff = 12.5
  binsize = 6.25, bins = 32 32 32
  6 neighbor lists, perpetual/occasional/extra = 4 2 0
  (1) pair lj/cut/coul/cut, perpetual, skip from (6)
      attributes: half, newton on
      pair build: skip
      stencil: none
      bin: none
  (2) pair lj/cut, perpetual, skip from (6)
      attributes: half, newton on
      pair build: skip
      stencil: none
      bin: none
  (3) pair morse, perpetual, skip from (6)
      attributes: half, newton on
      pair build: skip
      stencil: none
      bin: none
  (4) compute group/group, occasional, copy from (6)
      attributes: half, newton on
      pair build: copy
      stencil: none
      bin: none
  (5) compute group/group, occasional, copy from (6)
      attributes: half, newton on
      pair build: copy
      stencil: none
      bin: none
  (6) neighbor class addition, perpetual
      attributes: half, newton on
      pair build: half/bin/newton
      stencil: half/bin/3d/newton
      bin: standard
Per MPI rank memory allocation (min/avg/max) = 32.65 | 33.12 | 34.17 Mbytes
Step Temp E_pair PotEng TotEng c_c1[1] c_c1[2] c_c1[3] c_c2[1] c_c2[2] c_c2[3] v_Rg c_pe12 c_pe23 
 4000000    215.89102   -160682.89   -160626.24   -157843.61   -27.177726    -4.314315   -2.5190996    48.416309   -4.3992161   -2.1994291    9.8098529   -70.855202    2.0686631 
 4010000    218.64783   -160792.47   -160730.19   -157912.03   -27.178028   -4.3248135    -2.511422    48.417789    -4.404927   -2.2010768    8.8512982   -68.960468  -0.12956498 
 4020000    221.32087   -160695.95   -160637.66   -157785.05   -27.177359   -4.3344181   -2.5210813    48.428682   -4.3993536   -2.1949115    7.7003425   -66.684548            0 
 4030000    215.34252   -160689.88   -160635.37   -157859.81   -27.182365   -4.3421564   -2.5040514    48.438899   -4.4085302   -2.1953686    7.4470288   -71.406516            0 
 4040000    212.38345   -160726.06   -160669.17   -157931.75   -27.172503   -4.3300334   -2.5029354    48.445593   -4.4206142   -2.1924697    7.1738534    -67.49659            0 
 4050000    217.19797   -160746.14   -160692.81   -157893.34   -27.184567   -4.3245758   -2.4912657    48.438093   -4.4211168   -2.1973149    6.7366767   -66.080809            0 
 4060000    209.96011   -160740.23   -160686.18      -157980   -27.183702    -4.317336   -2.5035458     48.44644     -4.42015    -2.199183    6.9899834   -68.213315            0 
 4070000    213.70187   -160769.58    -160708.2   -157953.79   -27.183051   -4.3099627   -2.4870511    48.443925   -4.4120448   -2.2193771    7.4469461   -70.389333            0 
 4080000    212.18474   -160701.82   -160640.58   -157905.73   -27.180075   -4.2922751   -2.4873526     48.44404    -4.413648   -2.2179693    8.0159871   -68.945203            0 
 4090000    214.36045   -160754.98   -160691.57   -157928.68   -27.189038   -4.2933949   -2.4902226    48.445812   -4.4089497   -2.2199722    8.1201464   -65.737924 -0.0034325131 
 4100000    217.79142   -160692.29   -160630.39   -157823.27   -27.182626   -4.3023402    -2.484338    48.443641   -4.3987502   -2.2286363    8.6785745   -66.546704 -0.059035382 
 4110000    213.21807   -160764.56   -160697.25   -157949.08   -27.183698   -4.3074891    -2.482423    48.431072   -4.3915675   -2.2339497    8.9406191    -69.77746 -0.044447917 
 4120000    217.88281   -160766.08   -160712.56   -157904.26   -27.181784   -4.3115782   -2.4858001     48.42799   -4.3969196   -2.2502071    8.3602249   -67.619257 -0.00019523242 
 4130000    210.13863   -160717.41   -160659.39   -157950.91   -27.176082    -4.302892   -2.4802959    48.426892   -4.3956154   -2.2400105    7.4160304   -69.541583            0 
 4140000    210.17525   -160724.27   -160667.65   -157958.69   -27.185225   -4.3059352   -2.4643751    48.433234   -4.3957074   -2.2376497    7.0792876   -68.723161            0 
 4150000    211.22153   -160736.82   -160677.33   -157954.89    -27.17935   -4.2983516   -2.4668871    48.417519    -4.388496   -2.2496304     6.957755   -68.995105            0 
 4160000    217.73995   -160761.77   -160707.97   -157901.51   -27.171679   -4.2981467   -2.4663943    48.424903   -4.3897105   -2.2383105    8.0985382   -68.375022            0 
 4170000    215.02274   -160797.99   -160738.66   -157967.23   -27.166176   -4.3016328   -2.4538046    48.433228   -4.3884861   -2.2241296    7.8591391   -67.506453            0 
 4180000     216.0549   -160729.73   -160670.66   -157885.92    -27.16744   -4.2997163   -2.4416785    48.436854    -4.376726   -2.2194724    6.8499016   -65.197988            0 
[...]
77850000    209.53191    -160685.9   -160622.62   -157921.96   -27.166482   -4.4419673    -2.475084    48.445542   -4.3016502   -2.2396488    6.5698649   -70.077042            0 
77860000    220.82202   -160699.96   -160633.69   -157787.51   -27.170941   -4.4491371   -2.4707636    48.446407   -4.3041039   -2.2477526    5.6167407   -71.068411            0 
77870000    214.68346   -160727.61   -160659.21   -157892.15   -27.181182   -4.4524445   -2.4633467    48.453659   -4.2840943   -2.2350284    5.0052359   -72.355978            0 
77880000    216.75605   -160740.45   -160677.06   -157883.29   -27.179678   -4.4419973   -2.4714118    48.449384   -4.2977589   -2.2373725    5.0995763   -69.425369            0 
77890000    212.11275   -160769.01   -160700.83    -157966.9   -27.182891   -4.4405787   -2.4725915    48.448876   -4.3026457   -2.2444465    5.0507593   -70.543335            0 
77900000    218.19104   -160772.52   -160698.81   -157886.54   -27.176434   -4.4465969   -2.4624411    48.452197   -4.3181859   -2.2472672     4.621153   -73.099716            0 
77910000    218.23345   -160788.51   -160729.22    -157916.4   -27.182376   -4.4394735     -2.46479    48.451853   -4.3194395   -2.2607077    4.5532174   -72.202863            0 
77920000    220.36644   -160804.26   -160739.85   -157899.55   -27.189707   -4.4452394   -2.4451524     48.44868    -4.317424   -2.2673862    4.6182745   -71.762396            0 
77930000    218.90858   -160812.91    -160744.2   -157922.69   -27.179703   -4.4478465   -2.4573536     48.45143    -4.320119   -2.2674786    4.5078362   -72.345192            0 
77940000    217.27903   -160792.54   -160723.72   -157923.21   -27.162738   -4.4566224    -2.451586    48.441175   -4.3323426   -2.2721127    4.5222317   -73.102278            0 
77950000    214.13097   -160725.04   -160653.77   -157893.83   -27.161192   -4.4624165   -2.4424117    48.431804   -4.3267103   -2.2646031    4.5434634   -74.883016            0 
77960000    216.09465    -160726.2   -160659.75   -157874.51   -27.161985    -4.453346   -2.4517549    48.428829   -4.3293935   -2.2625524    4.5819065   -72.320019            0 
77970000    213.83935   -160722.01   -160654.52   -157898.34    -27.16091   -4.4519055   -2.4611798    48.428452    -4.325015   -2.2647642     4.514948   -71.675309            0 
77980000    219.45737   -160749.23   -160677.94   -157849.35   -27.153024   -4.4422771   -2.4478348    48.431785   -4.3166255   -2.2653501    4.6663048   -65.819599            0 
77990000    214.22771    -160741.3    -160673.5   -157912.31   -27.154454   -4.4411861   -2.4507694    48.439072   -4.3155531   -2.2623777    4.6461542   -72.303263            0 
78000000    219.76675   -160769.47   -160707.93   -157875.35   -27.167613   -4.4426212   -2.4566702    48.446546   -4.3114786    -2.257208    4.6969363   -71.180983            0 
78010000    216.19369   -160776.31   -160708.35   -157921.83   -27.154626   -4.4520726   -2.4548387    48.449874    -4.322847   -2.2584989    4.6595391   -70.322415            0 
78020000     218.1039   -160793.55   -160727.47   -157916.33   -27.137844   -4.4554394   -2.4566115    48.445506    -4.316428   -2.2601826     4.581818   -70.582255            0 
78030000    216.70737   -160786.87   -160720.59   -157927.44   -27.125467   -4.4459165   -2.4608877    48.445516   -4.3157595   -2.2680379    4.7412185    -70.50863            0 
78040000    213.77787   -160780.73      -160717   -157961.62   -27.137037   -4.4451409    -2.474196    48.442403   -4.3187496   -2.2701782    4.5982446   -70.167641            0 
78050000    212.01302   -160751.68   -160683.47   -157950.82   -27.136689   -4.4262035   -2.4648072    48.442035   -4.3127079   -2.2603785    4.5804986   -68.382097            0 
78060000    218.56846   -160731.14   -160665.64   -157848.51   -27.144083   -4.4249521   -2.4589241    48.443182   -4.3169791   -2.2519065    4.3809327   -72.060313            0 
78070000    216.74296   -160755.93   -160688.29   -157894.68   -27.150398   -4.4236985   -2.4554047    48.444561   -4.3144579   -2.2524551    4.5150204   -71.153969            0 
78080000    213.86667   -160756.58   -160679.17   -157922.64   -27.165581   -4.4263621   -2.4515605    48.443226   -4.3107954   -2.2584355    4.3096613   -68.371041            0 
78090000    216.57477   -160769.01    -160702.5   -157911.06   -27.167864   -4.4197714   -2.4584665    48.447452   -4.3041528   -2.2569937    4.3839627   -72.013612            0 
78100000    217.27786   -160793.78   -160723.37   -157922.87   -27.170487   -4.4073947   -2.4641204    48.450378   -4.3030421   -2.2576449    4.3647317   -71.711676            0 
78110000    212.61326    -160716.1    -160647.9   -157907.53    -27.16414   -4.4129195   -2.4659129     48.44047   -4.3016503   -2.2455192    4.3936401   -71.485528            0 
78120000    217.13164   -160816.73   -160754.33   -157955.72   -27.156836   -4.4219293   -2.4598985    48.438916   -4.2889695   -2.2456848    4.2831066   -70.593236            0 
78130000    214.00834   -160750.18   -160683.05   -157924.69   -27.158466   -4.4101884   -2.4706653     48.42925   -4.2923396   -2.2457156    4.4083691   -69.050812            0 
78140000    219.05047   -160701.34   -160644.18   -157820.84   -27.150893    -4.398344   -2.4679637    48.416558    -4.288706   -2.2464945    4.5697765   -71.677355            0 
78150000    212.62871   -160729.42   -160654.13   -157913.55    -27.14331   -4.3819315   -2.4672901    48.422092   -4.2837941   -2.2418316    4.9237954   -68.963449            0 
78160000    217.47287   -160785.89   -160713.96   -157910.95   -27.145473   -4.3716773   -2.4731913    48.425803   -4.2846174   -2.2580923    4.3374357   -73.972158            0 
78170000    216.48795   -160764.79   -160694.72    -157904.4   -27.141432   -4.3674021   -2.4691009    48.430701   -4.2820938   -2.2506509    4.7206573    -71.06922            0 
78180000     213.7757   -160737.27   -160673.24   -157917.88   -27.144593   -4.3558448     -2.45987    48.444073     -4.27233    -2.246776    4.5438506   -72.563973            0 
78190000    213.46715   -160865.68   -160800.05   -158048.66    -27.14045   -4.3505075   -2.4508705    48.451668   -4.2762662   -2.2279875    4.4674405   -67.245258            0 
78200000    217.82953   -160728.95   -160659.14   -157851.53   -27.148902   -4.3553887    -2.451704    48.457889    -4.275422   -2.2197888     4.406364   -70.700373            0 
78210000    218.60605   -160807.76   -160736.14   -157918.52   -27.141772   -4.3494624   -2.4542529     48.46745   -4.2784244   -2.2197155    4.5082788   -70.961092            0 
78220000    217.43658   -160742.02   -160669.66   -157867.12   -27.120525   -4.3417599   -2.4605792    48.468629    -4.273926   -2.2186074    4.5320279   -71.891472            0 
78230000     212.6208   -160754.36   -160683.63   -157943.16   -27.125184     -4.33356   -2.4633037    48.468001   -4.2878254   -2.2211076     4.414529   -69.477854            0 
78240000    222.27295    -160793.9   -160736.77   -157871.89   -27.131835   -4.3289245   -2.4603843     48.46459   -4.2944423   -2.2180767     4.465325   -68.267703            0 
78250000    217.07502   -160716.82   -160651.52   -157853.64    -27.12701   -4.3347923   -2.4508386    48.470217    -4.301709   -2.2075672    4.4212012   -68.629412            0 
78260000    216.18134   -160820.98   -160752.66    -157966.3   -27.120377   -4.3352446   -2.4446337     48.47732   -4.3023556    -2.205474    4.3327883   -69.057064            0 
78270000    211.69878   -160681.57   -160617.93   -157889.34   -27.119417   -4.3533478   -2.4511834    48.460624   -4.2937477   -2.2176022    4.6935172   -69.236833            0 
78280000    219.74073   -160770.54   -160708.15    -157875.9   -27.131289   -4.3538869   -2.4499815     48.46225   -4.2870359   -2.2182983    4.6101245   -70.812776            0 
78290000    217.44381    -160782.2   -160715.24    -157912.6   -27.130072   -4.3632663   -2.4413039    48.468809   -4.2900845   -2.2283271    4.4226001   -71.509496            0 
78300000    214.19287   -160748.51    -160679.4   -157918.66    -27.11758   -4.3717675   -2.4432295    48.460861   -4.2915914   -2.2382597      4.45973   -73.533691            0 
78310000    214.88717   -160733.86   -160669.24   -157899.56   -27.111628   -4.3842109   -2.4500394    48.448699   -4.2917543   -2.2550762    4.6909494   -71.254551            0 
78320000    210.94012   -160809.01   -160736.75   -158017.94   -27.119527   -4.3981594   -2.4421706     48.45618   -4.2815718   -2.2520619     4.594926   -68.789395            0 
78330000    215.44834   -160778.27   -160713.28   -157936.36   -27.114654    -4.398722   -2.4393525    48.452839   -4.2748108   -2.2535076    4.8383391   -71.073144            0 
78340000    212.62665   -160753.98   -160686.87   -157946.32   -27.118194   -4.3971051   -2.4268272    48.455948   -4.2739839   -2.2354579     4.728558   -67.827481            0 
78350000    215.83833   -160682.08    -160614.5   -157832.55   -27.110773   -4.3820521   -2.4304007    48.448418   -4.2669617   -2.2259142    4.5947666   -72.518195            0 
78360000    215.33116   -160770.75   -160703.21    -157927.8   -27.110545   -4.3849706   -2.4254224    48.424551   -4.2647604   -2.2258351    4.4497534   -69.279158            0 
78370000    211.98926   -160778.26   -160715.12   -157982.78   -27.108146   -4.3914321   -2.4158026     48.43451     -4.27462   -2.2235741    4.4472542   -71.355025            0 
78380000    217.60754   -160819.19   -160755.12   -157950.37   -27.116924   -4.3853197   -2.4215698    48.444678   -4.2717614   -2.2138315    4.7840428   -69.116623            0 
78390000     218.2659   -160725.46   -160661.02   -157847.79   -27.115352    -4.376928   -2.4115759    48.436471   -4.2791007    -2.217837    4.5440314   -70.268521            0 
78400000    214.58146   -160759.46   -160692.35   -157926.61   -27.114975   -4.3851094   -2.4224918    48.447177   -4.2933258   -2.2235293    4.5319506   -66.685871            0 
78410000    218.17543   -160754.19   -160691.05   -157878.98   -27.108077   -4.3804213   -2.4192432    48.443887   -4.2852202   -2.2284754    4.6987635   -67.664974            0 
78420000    216.93086   -160742.99   -160675.09   -157879.06   -27.117863   -4.3790929   -2.4278286    48.449263   -4.2914673   -2.2275919     4.953568   -69.585148            0 
78430000    215.79438   -160752.53   -160685.23   -157903.85   -27.115717    -4.387724   -2.4364936     48.45809    -4.293334   -2.2275152     4.841135   -69.713327            0 
78440000    213.70917   -160741.48   -160674.19   -157919.68   -27.121156   -4.3848419   -2.4303939     48.45803   -4.2839582   -2.2297329    4.7648185   -71.871792            0 
78450000    213.05896   -160652.23   -160581.67   -157835.55   -27.135811   -4.4019141   -2.4290995    48.456337   -4.2805894   -2.2287556    4.9164757   -71.430342            0 
78460000    216.82853   -160740.75    -160674.3   -157879.59   -27.135944   -4.3972618   -2.4254479    48.453077   -4.2730906   -2.2205759     4.500433   -68.623367            0 
78470000    216.37654   -160734.91   -160667.74   -157878.86   -27.136964   -4.3911823   -2.4139067    48.450225   -4.2596943   -2.2258769    4.7262439   -72.593901            0 
78480000    218.83695   -160765.06    -160694.1    -157873.5   -27.136331   -4.3856916   -2.4241247    48.449445   -4.2654774   -2.2219994    4.7387458   -69.757545            0 
78490000    215.05554   -160684.87   -160615.83   -157843.97   -27.118588   -4.3856166   -2.4241343     48.45149   -4.2698512   -2.2213553    4.9072375   -71.154313            0 
78500000    216.04968   -160742.53   -160670.72   -157886.05   -27.127416   -4.3839362   -2.4171517    48.450542   -4.2588673   -2.2272177    4.8459032   -69.305362            0 
78510000    214.81699   -160765.24   -160697.61   -157928.83   -27.123318   -4.3680554   -2.4162486    48.455874    -4.257347   -2.2314506     4.639188   -71.238464            0 
78520000    219.53741    -160736.5   -160670.39   -157840.77    -27.12539   -4.3694814   -2.4228939    48.456693   -4.2590419   -2.2285889    4.7693633   -70.950641            0 
78530000    217.95829   -160757.27   -160689.24   -157879.97   -27.139187    -4.375223   -2.4202301    48.457065   -4.2690849   -2.2169354    4.8590599    -72.73001            0 
78540000    216.10002   -160785.33   -160710.01   -157924.69   -27.131259   -4.3806063   -2.4202617    48.456221   -4.2652228   -2.2212024    4.9577328   -70.443845            0 
78550000    217.78756   -160828.97   -160759.59   -157952.52    -27.13599   -4.3727459   -2.4067347    48.461129   -4.2583945   -2.2213414    4.7920007   -72.784479            0 
78560000    215.20986   -160730.55   -160657.72   -157883.87   -27.138152   -4.3753296   -2.3991462    48.457397   -4.2624647   -2.2268768    4.6783629    -73.27389            0 
78570000    217.97128   -160731.38    -160664.3   -157854.86   -27.144612   -4.3677434   -2.3921591    48.451638   -4.2654984   -2.2297537       4.6081   -72.250115            0 
78580000    214.17958    -160706.2   -160644.38   -157883.82   -27.154317   -4.3694015   -2.3869151     48.46414   -4.2801749    -2.223606    4.5255999    -72.23087            0 
78590000    213.35288      -160750   -160684.33   -157934.42   -27.144855   -4.3682347   -2.3969426    48.469944   -4.2785481   -2.2146285    4.7268096   -70.241756            0 
78600000    213.22278   -160766.32   -160702.95   -157954.72   -27.152383   -4.3753388   -2.3990976    48.463239   -4.2698381   -2.2252317     4.547822   -71.711676            0 
78610000    216.34736   -160792.89   -160722.74   -157934.24    -27.14122   -4.3654149   -2.3874784    48.473082   -4.2726653   -2.2379523    4.7242917    -72.83047            0 
78620000    221.22836   -160800.53   -160741.95   -157890.53   -27.143537   -4.3650615   -2.3817839    48.467256   -4.2659768   -2.2357058    4.5975288    -72.28361            0 
78630000    219.55024   -160735.13   -160672.45   -157842.66   -27.132211   -4.3547885   -2.3873356    48.454063    -4.266802   -2.2569076    4.6669092   -70.548347            0 
78640000    214.76828    -160775.4   -160712.97   -157944.82   -27.142443   -4.3615262   -2.3917821     48.46133   -4.2514431   -2.2519012    4.4977704   -68.909838            0 
78650000    213.33821   -160790.91   -160724.57   -157974.85   -27.134531   -4.3554708   -2.3750909    48.460026   -4.2472476   -2.2598791    4.6204237   -68.263139            0 
78660000    208.47087   -160746.79   -160680.54   -157993.55   -27.125382   -4.3660907   -2.3632906    48.465066   -4.2420375   -2.2643867    4.6031906   -69.473145            0 
78670000    217.88146   -160699.54   -160636.55   -157828.27   -27.127481   -4.3611802   -2.3688765     48.46203   -4.2416523    -2.267507    4.7027596   -73.426181            0 
78680000    213.66516   -160792.65   -160723.48   -157969.54   -27.125495   -4.3646747   -2.3700429    48.460033   -4.2373793   -2.2550267    4.5945863   -73.529365            0 
78690000     212.3034    -160765.5   -160707.27   -157970.89   -27.127416   -4.3714152   -2.3752381    48.449187   -4.2462266   -2.2601972    4.6552402   -73.374423            0 
78700000    212.99481   -160740.31   -160679.43   -157934.14   -27.126076   -4.3782924   -2.3820454    48.453818   -4.2396557   -2.2536694    4.4435556   -72.012459            0 
78710000    216.78111   -160749.57   -160684.03   -157889.93   -27.128292   -4.3714833   -2.3816067    48.456266   -4.2354595   -2.2431837    4.6721339   -72.246071            0 
78720000    212.18971   -160722.47   -160653.66   -157918.74   -27.134187   -4.3806054    -2.381326    48.448525   -4.2421741   -2.2489256    4.7213893    -70.97208            0 
78730000    218.71744   -160781.13   -160716.91   -157897.86   -27.140693   -4.3904123   -2.3849606    48.445745   -4.2364683   -2.2516008    4.6416889   -69.694667            0 
78740000    216.62881   -160785.97      -160719   -157926.86   -27.138771   -4.3836337   -2.4061086    48.440708   -4.2427664   -2.2547303    4.8217196   -68.599745            0 
78750000     215.7974   -160726.55    -160654.3   -157872.88   -27.139917   -4.3879441   -2.4047311     48.45386   -4.2533321   -2.2583439    4.6772225   -70.771082            0 
78760000    214.78458   -160731.63   -160668.48   -157900.12   -27.141352   -4.3822917   -2.3981581    48.447576   -4.2573876   -2.2614223    5.2353126   -68.080946            0 
78770000    215.99419   -160758.43   -160694.82   -157910.86   -27.128853    -4.384358    -2.390271    48.446786   -4.2599723   -2.2444637    4.6726182   -71.484309            0 
78780000    214.75751   -160739.98   -160674.79   -157906.78   -27.138797   -4.3973313   -2.4096896    48.456591   -4.2581307    -2.250217    4.6894591   -70.414145            0 
78790000    216.46639   -160721.35   -160646.75   -157856.71   -27.146387   -4.3909193    -2.411599    48.448148   -4.2551728   -2.2563672    4.6018114   -70.328169            0 
78800000    214.80447   -160763.54   -160698.19   -157929.57   -27.131326   -4.3980054   -2.4249665    48.435899   -4.2543751   -2.2537763    4.4562155   -70.211779            0 
78810000    213.64155   -160758.72   -160688.57   -157934.93   -27.131903   -4.3991121   -2.4127985    48.431743   -4.2479427   -2.2538898    4.4741599   -70.632265            0 
78820000    210.72669   -160704.68   -160635.86    -157919.8   -27.135522   -4.3981668   -2.4210244    48.434055   -4.2495372    -2.256254     4.420363   -71.297182            0 
78830000    218.69688   -160750.58   -160686.99    -157868.2    -27.13495    -4.387406   -2.4243584    48.439238   -4.2476879   -2.2656733     4.473946   -68.555208            0 
78840000    210.40684   -160713.23    -160649.1   -157937.16   -27.128359   -4.3913286   -2.4346616    48.441733   -4.2512389   -2.2691123    4.4997461   -72.520076            0 
78850000    218.14502   -160748.04   -160677.08    -157865.4   -27.114459   -4.3888199   -2.4335166    48.435622    -4.253404   -2.2828589    4.4516545   -69.082299            0 
78860000    215.86613   -160752.41   -160678.12   -157895.81   -27.121831   -4.3909269    -2.445875    48.433682   -4.2579663   -2.2806957    4.4273844    -71.56424            0 
78870000     219.3355   -160680.52   -160613.49   -157786.47   -27.120593   -4.3879602   -2.4360034      48.4224   -4.2552568   -2.2785656     4.411842   -69.725698            0 
78880000    215.56593   -160720.95   -160652.06   -157873.63   -27.105792   -4.3929294   -2.4360106    48.429046   -4.2506647    -2.281097    4.5675524    -71.40686            0 
78890000    217.48468   -160747.45   -160676.29   -157873.13   -27.128064   -4.3967965    -2.436515    48.439902   -4.2711566   -2.2799469    4.5005108   -70.517234            0 
78900000    217.01242   -160748.74   -160678.23   -157881.15    -27.13719   -4.3991968    -2.423707    48.435833   -4.2721813   -2.2783702    4.4914486   -71.659351            0 
78910000    218.90005   -160771.77    -160699.7    -157878.3   -27.132048   -4.3899432   -2.4209088    48.436314   -4.2679978   -2.2815658    4.4001838   -71.635328            0 
78920000    218.86314   -160664.02   -160593.65   -157772.72   -27.127151   -4.4067097   -2.4150846    48.439522    -4.262465   -2.2861345    4.3759657   -69.990502            0 
78930000    212.94167   -160733.57   -160673.13   -157928.52   -27.125537   -4.4269787   -2.4133631    48.444854   -4.2620854   -2.2821352    4.4161195    -69.70633            0 
78940000     214.7076   -160708.65   -160640.41   -157873.04   -27.135216   -4.4190012    -2.433565    48.435267   -4.2598711   -2.2658919    4.6082921   -69.191355            0 
78950000    213.98764   -160779.12   -160708.09   -157949.99   -27.132996   -4.4080547   -2.4445342    48.435282    -4.262546   -2.2746086    4.6595301   -73.027288            0 
